
                                 *****************
                                 * O   R   C   A *
                                 *****************

                                            #,                                       
                                            ###                                      
                                            ####                                     
                                            #####                                    
                                            ######                                   
                                           ########,                                 
                                     ,,################,,,,,                         
                               ,,#################################,,                 
                          ,,##########################################,,             
                       ,#########################################, ''#####,          
                    ,#############################################,,   '####,        
                  ,##################################################,,,,####,       
                ,###########''''           ''''###############################       
              ,#####''   ,,,,##########,,,,          '''####'''          '####       
            ,##' ,,,,###########################,,,                        '##       
           ' ,,###''''                  '''############,,,                           
         ,,##''                                '''############,,,,        ,,,,,,###''
      ,#''                                            '''#######################'''  
     '                                                          ''''####''''         
             ,#######,   #######,   ,#######,      ##                                
            ,#'     '#,  ##    ##  ,#'     '#,    #''#        ######   ,####,        
            ##       ##  ##   ,#'  ##            #'  '#       #        #'  '#        
            ##       ##  #######   ##           ,######,      #####,   #    #        
            '#,     ,#'  ##    ##  '#,     ,#' ,#      #,         ##   #,  ,#        
             '#######'   ##     ##  '#######'  #'      '#     #####' # '####'        



                  #######################################################
                  #                        -***-                        #
                  #          Department of theory and spectroscopy      #
                  #    Directorship and core code : Frank Neese         #
                  #        Max Planck Institute fuer Kohlenforschung    #
                  #                Kaiser Wilhelm Platz 1               #
                  #                 D-45470 Muelheim/Ruhr               #
                  #                      Germany                        #
                  #                                                     #
                  #                  All rights reserved                #
                  #                        -***-                        #
                  #######################################################


                         Program Version 5.0.1 -  RELEASE  -


 With contributions from (in alphabetic order):
   Daniel Aravena         : Magnetic Suceptibility
   Michael Atanasov       : Ab Initio Ligand Field Theory (pilot matlab implementation)
   Alexander A. Auer      : GIAO ZORA, VPT2 properties, NMR spectrum
   Ute Becker             : Parallelization
   Giovanni Bistoni       : ED, misc. LED, open-shell LED, HFLD
   Martin Brehm           : Molecular dynamics
   Dmytro Bykov           : SCF Hessian
   Vijay G. Chilkuri      : MRCI spin determinant printing, contributions to CSF-ICE
   Dipayan Datta          : RHF DLPNO-CCSD density
   Achintya Kumar Dutta   : EOM-CC, STEOM-CC
   Dmitry Ganyushin       : Spin-Orbit,Spin-Spin,Magnetic field MRCI
   Miquel Garcia          : C-PCM and meta-GGA Hessian, CC/C-PCM, Gaussian charge scheme
   Yang Guo               : DLPNO-NEVPT2, F12-NEVPT2, CIM, IAO-localization
   Andreas Hansen         : Spin unrestricted coupled pair/coupled cluster methods
   Benjamin Helmich-Paris : MC-RPA, TRAH-SCF, COSX integrals
   Lee Huntington         : MR-EOM, pCC
   Robert Izsak           : Overlap fitted RIJCOSX, COSX-SCS-MP3, EOM
   Marcus Kettner         : VPT2
   Christian Kollmar      : KDIIS, OOCD, Brueckner-CCSD(T), CCSD density, CASPT2, CASPT2-K
   Simone Kossmann        : Meta GGA functionals, TD-DFT gradient, OOMP2, MP2 Hessian
   Martin Krupicka        : Initial AUTO-CI
   Lucas Lang             : DCDCAS
   Marvin Lechner         : AUTO-CI (C++ implementation), FIC-MRCC
   Dagmar Lenk            : GEPOL surface, SMD
   Dimitrios Liakos       : Extrapolation schemes; Compound Job, initial MDCI parallelization
   Dimitrios Manganas     : Further ROCIS development; embedding schemes
   Dimitrios Pantazis     : SARC Basis sets
   Anastasios Papadopoulos: AUTO-CI, single reference methods and gradients
   Taras Petrenko         : DFT Hessian,TD-DFT gradient, ASA, ECA, R-Raman, ABS, FL, XAS/XES, NRVS
   Peter Pinski           : DLPNO-MP2, DLPNO-MP2 Gradient
   Christoph Reimann      : Effective Core Potentials
   Marius Retegan         : Local ZFS, SOC
   Christoph Riplinger    : Optimizer, TS searches, QM/MM, DLPNO-CCSD(T), (RO)-DLPNO pert. Triples
   Tobias Risthaus        : Range-separated hybrids, TD-DFT gradient, RPA, STAB
   Michael Roemelt        : Original ROCIS implementation
   Masaaki Saitow         : Open-shell DLPNO-CCSD energy and density
   Barbara Sandhoefer     : DKH picture change effects
   Avijit Sen             : IP-ROCIS
   Kantharuban Sivalingam : CASSCF convergence, NEVPT2, FIC-MRCI
   Bernardo de Souza      : ESD, SOC TD-DFT
   Georgi Stoychev        : AutoAux, RI-MP2 NMR, DLPNO-MP2 response
   Willem Van den Heuvel  : Paramagnetic NMR
   Boris Wezisla          : Elementary symmetry handling
   Frank Wennmohs         : Technical directorship


 We gratefully acknowledge several colleagues who have allowed us to
 interface, adapt or use parts of their codes:
   Stefan Grimme, W. Hujo, H. Kruse, P. Pracht,  : VdW corrections, initial TS optimization,
                  C. Bannwarth, S. Ehlert          DFT functionals, gCP, sTDA/sTD-DF
   Ed Valeev, F. Pavosevic, A. Kumar             : LibInt (2-el integral package), F12 methods
   Garnet Chan, S. Sharma, J. Yang, R. Olivares  : DMRG
   Ulf Ekstrom                                   : XCFun DFT Library
   Mihaly Kallay                                 : mrcc  (arbitrary order and MRCC methods)
   Jiri Pittner, Ondrej Demel                    : Mk-CCSD
   Frank Weinhold                                : gennbo (NPA and NBO analysis)
   Christopher J. Cramer and Donald G. Truhlar   : smd solvation model
   Lars Goerigk                                  : TD-DFT with DH, B97 family of functionals
   V. Asgeirsson, H. Jonsson                     : NEB implementation
   FAccTs GmbH                                   : IRC, NEB, NEB-TS, DLPNO-Multilevel, CI-OPT
                                                   MM, QMMM, 2- and 3-layer-ONIOM, Crystal-QMMM,
                                                   LR-CPCM, SF, NACMEs, symmetry and pop. for TD-DFT,
                                                   nearIR, NL-DFT gradient (VV10), updates on ESD,
                                                   ML-optimized integration grids
   S Lehtola, MJT Oliveira, MAL Marques          : LibXC Library
   Liviu Ungur et al                             : ANISO software


 Your calculation uses the libint2 library for the computation of 2-el integrals
 For citations please refer to: http://libint.valeyev.net

 Your ORCA version has been built with support for libXC version: 5.1.0
 For citations please refer to: https://tddft.org/programs/libxc/

 This ORCA versions uses:
   CBLAS   interface :  Fast vector & matrix operations
   LAPACKE interface :  Fast linear algebra routines
   SCALAPACK package :  Parallel linear algebra routines
   Shared memory     :  Shared parallel matrices
   BLAS/LAPACK       :  OpenBLAS 0.3.15  USE64BITINT DYNAMIC_ARCH NO_AFFINITY Zen SINGLE_THREADED
        Core in use  :  Zen
   Copyright (c) 2011-2014, The OpenBLAS Project


================================================================================

----- Orbital basis set information -----
Your calculation utilizes the basis: 6-31G(d)
   H-He, Li-Ne : W. J. Hehre, R. Ditchfield and J.A. Pople, J. Chem. Phys. 56, 2257 (1972).
                 Note: He and Ne are unpublished basis sets taken from the Gaussian program.
                 Note: Li and B from J. D. Dill and J. A. Pople, J. Chem. Phys. 62, 2921 (1975).
   Na - Ar     : M. M. Francl, W. J. Pietro, W. J. Hehre, J. S. Binkley, M. S. Gordon, 
                 D. J. DeFrees and J. A. Pople, J. Chem. Phys. 77, 3654 (1982).
   K - Zn      : V. A. Rassolov, J. A. Pople, M. A. Ratner, and T. L. Windus, J. Chem. Phys. 109, 1223 (1998).

----- AuxJ basis set information -----
Your calculation utilizes the auxiliary basis: def2/J
   F. Weigend, Phys. Chem. Chem. Phys. 8, 1057 (2006).

================================================================================
                                        WARNINGS
                       Please study these warnings very carefully!
================================================================================


WARNING: Geometry Optimization
  ===> : Switching off AutoStart
         For restart on a previous wavefunction, please use MOREAD

INFO   : the flag for use of the SHARK integral package has been found!

================================================================================
                                       INPUT FILE
================================================================================
NAME = compound_medoid_10/compound_medoid_10.inp
|  1> ! B3LYP 6-31G(d) Opt TightSCF
|  2> %pal
|  3>    nprocs 16
|  4> end
|  5> 
|  6> * xyz 0 1
|  7> C   -4.943849   1.228782   1.340222
|  8> N   -4.421667   0.563170   0.136680
|  9> C   -3.282938   1.331920  -0.419841
| 10> C   -2.452047   0.486390  -1.392224
| 11> C   -1.832837  -0.753502  -0.690081
| 12> C   -0.341627  -0.543064  -0.340607
| 13> C    0.571797  -0.659888  -1.569128
| 14> N    1.964358  -0.447837  -1.184055
| 15> C    2.824681  -1.403628  -0.558224
| 16> O    2.588708  -2.639563  -0.501185
| 17> C    3.981839  -0.731648   0.021972
| 18> C    5.076566  -1.241086   0.718075
| 19> C    6.044738  -0.332201   1.181582
| 20> C    5.897458   1.052371   0.946467
| 21> C    4.780564   1.541721   0.245508
| 22> C    3.838057   0.620413  -0.207664
| 23> C    2.588830   0.814380  -0.934911
| 24> O    2.102647   1.925281  -1.275565
| 25> C   -2.624853  -1.141346   0.580793
| 26> C   -4.124059  -0.869994   0.396838
| 27> H   -5.167465   2.296300   1.125039
| 28> H   -4.211861   1.170837   2.176206
| 29> H   -5.896113   0.750935   1.655591
| 30> H   -3.677884   2.215771  -0.966058
| 31> H   -2.612910   1.705094   0.388947
| 32> H   -1.674828   1.131709  -1.852406
| 33> H   -3.117857   0.145887  -2.215721
| 34> H   -1.906174  -1.613118  -1.394514
| 35> H   -0.021864  -1.316921   0.392324
| 36> H   -0.203792   0.450637   0.139889
| 37> H    0.466935  -1.669857  -2.021234
| 38> H    0.292848   0.086449  -2.341314
| 39> H    5.178915  -2.303272   0.898233
| 40> H    6.907128  -0.696582   1.724440
| 41> H    6.647699   1.742259   1.310304
| 42> H    4.657174   2.601660   0.065291
| 43> H   -2.266634  -0.560492   1.459858
| 44> H   -2.467939  -2.219525   0.802939
| 45> H   -4.672150  -1.252960   1.287384
| 46> H   -4.489595  -1.465484  -0.467515
| 47> *
| 48> 
| 49>                          ****END OF INPUT****
================================================================================

                       *****************************
                       * Geometry Optimization Run *
                       *****************************

Geometry optimization settings:
Update method            Update   .... BFGS
Choice of coordinates    CoordSys .... Z-matrix Internals
Initial Hessian          InHess   .... Almoef's Model

Convergence Tolerances:
Energy Change            TolE     ....  5.0000e-06 Eh
Max. Gradient            TolMAXG  ....  3.0000e-04 Eh/bohr
RMS Gradient             TolRMSG  ....  1.0000e-04 Eh/bohr
Max. Displacement        TolMAXD  ....  4.0000e-03 bohr
RMS Displacement         TolRMSD  ....  2.0000e-03 bohr
Strict Convergence                ....  False
------------------------------------------------------------------------------
                        ORCA OPTIMIZATION COORDINATE SETUP
------------------------------------------------------------------------------

The optimization will be done in new redundant internal coordinates
Making redundant internal coordinates   ...  (new redundants) done
Evaluating the initial hessian          ...  (Almloef) done
Evaluating the coordinates              ...  done
Calculating the B-matrix                .... done
Calculating the G-matrix                .... done
Diagonalizing the G-matrix              .... done
Small eigenvalue found = 2.754e-03
Small eigenvalue found = 6.252e-03
Small eigenvalue found = 1.744e-02
Small eigenvalue found = 2.201e-02
The first mode is                       ....  124
The number of degrees of freedom        ....  114

    -----------------------------------------------------------------
                    Redundant Internal Coordinates


    -----------------------------------------------------------------
         Definition                    Initial Value    Approx d2E/dq
    -----------------------------------------------------------------
      1. B(N   1,C   0)                  1.4711         0.415371   
      2. B(C   2,N   1)                  1.4824         0.398583   
      3. B(C   3,C   2)                  1.5332         0.369153   
      4. B(C   4,C   3)                  1.5536         0.342517   
      5. B(C   5,C   4)                  1.5460         0.352246   
      6. B(C   6,C   5)                  1.5353         0.366324   
      7. B(N   7,C   6)                  1.4603         0.432233   
      8. B(C   8,N   7)                  1.4302         0.482840   
      9. B(O   9,C   8)                  1.2596         0.903642   
     10. B(C  10,C   8)                  1.4585         0.485807   
     11. B(C  11,C  10)                  1.3937         0.616269   
     12. B(C  12,C  11)                  1.4065         0.588030   
     13. B(C  13,C  12)                  1.4121         0.576088   
     14. B(C  14,C  13)                  1.4065         0.588036   
     15. B(C  15,C  10)                  1.3789         0.650705   
     16. B(C  15,C  14)                  1.3937         0.616286   
     17. B(C  16,C  15)                  1.4585         0.485880   
     18. B(C  16,N   7)                  1.4301         0.482919   
     19. B(O  17,C  16)                  1.2596         0.903579   
     20. B(C  18,C   4)                  1.5469         0.351115   
     21. B(C  19,C  18)                  1.5346         0.367274   
     22. B(C  19,N   1)                  1.4867         0.392312   
     23. B(H  20,C   0)                  1.1117         0.332494   
     24. B(H  21,C   0)                  1.1127         0.331326   
     25. B(H  22,C   0)                  1.1111         0.333209   
     26. B(H  23,C   2)                  1.1115         0.332700   
     27. B(H  24,C   2)                  1.1146         0.328984   
     28. B(H  25,C   3)                  1.1101         0.334495   
     29. B(H  26,C   3)                  1.1124         0.331677   
     30. B(H  27,C   4)                  1.1138         0.329956   
     31. B(H  28,C   5)                  1.1128         0.331185   
     32. B(H  29,C   5)                  1.1123         0.331718   
     33. B(H  30,C   6)                  1.1115         0.332752   
     34. B(H  31,C   6)                  1.1096         0.335144   
     35. B(H  32,C  11)                  1.0822         0.370559   
     36. B(H  33,C  12)                  1.0822         0.370550   
     37. B(H  34,C  13)                  1.0822         0.370550   
     38. B(H  35,C  14)                  1.0822         0.370557   
     39. B(H  36,C  18)                  1.1129         0.331089   
     40. B(H  37,C  18)                  1.1120         0.332198   
     41. B(H  38,C  19)                  1.1136         0.330177   
     42. B(H  39,C  19)                  1.1115         0.332808   
     43. A(H  20,C   0,H  21)          109.1330         0.283527   
     44. A(N   1,C   0,H  20)          110.3349         0.323776   
     45. A(H  20,C   0,H  22)          107.1882         0.283777   
     46. A(H  21,C   0,H  22)          109.1573         0.283622   
     47. A(N   1,C   0,H  22)          109.9882         0.323890   
     48. A(N   1,C   0,H  21)          110.9526         0.323589   
     49. A(C   0,N   1,C  19)          111.3495         0.368490   
     50. A(C   2,N   1,C  19)          114.3211         0.365892   
     51. A(C   0,N   1,C   2)          110.1922         0.369495   
     52. A(C   3,C   2,H  24)          108.6062         0.318934   
     53. A(C   3,C   2,H  23)          108.6268         0.319519   
     54. A(N   1,C   2,C   3)          111.6171         0.364371   
     55. A(N   1,C   2,H  24)          111.2841         0.321035   
     56. A(H  23,C   2,H  24)          107.6948         0.283242   
     57. A(N   1,C   2,H  23)          108.8994         0.321626   
     58. A(C   4,C   3,H  25)          111.8536         0.315921   
     59. A(H  25,C   3,H  26)          106.8654         0.283838   
     60. A(C   4,C   3,H  26)          109.1981         0.315487   
     61. A(C   2,C   3,H  25)          108.7687         0.319800   
     62. A(C   2,C   3,C   4)          111.6830         0.357290   
     63. A(C   2,C   3,H  26)          108.2970         0.319358   
     64. A(C   3,C   4,C  18)          111.5511         0.354265   
     65. A(C  18,C   4,H  27)          107.0012         0.316493   
     66. A(C   3,C   4,H  27)          107.6896         0.315220   
     67. A(C   5,C   4,C  18)          110.0155         0.355952   
     68. A(C   5,C   4,H  27)          108.1516         0.316659   
     69. A(C   3,C   4,C   5)          112.2075         0.354459   
     70. A(C   4,C   5,H  28)          109.3536         0.316851   
     71. A(C   6,C   5,H  29)          109.8706         0.318964   
     72. A(C   6,C   5,H  28)          107.6471         0.318880   
     73. A(C   4,C   5,H  29)          109.8018         0.316934   
     74. A(C   4,C   5,C   6)          112.4957         0.358527   
     75. A(H  28,C   5,H  29)          107.5254         0.283405   
     76. A(C   5,C   6,H  31)          110.8620         0.319500   
     77. A(N   7,C   6,H  30)          109.2185         0.325941   
     78. A(C   5,C   6,H  30)          109.7844         0.319126   
     79. A(C   5,C   6,N   7)          110.1995         0.368981   
     80. A(H  30,C   6,H  31)          107.7226         0.284066   
     81. A(N   7,C   6,H  31)          109.0011         0.326326   
     82. A(C   6,N   7,C   8)          126.2990         0.384588   
     83. A(C   8,N   7,C  16)          104.5331         0.392100   
     84. A(C   6,N   7,C  16)          126.1929         0.384599   
     85. A(N   7,C   8,C  10)          110.0863         0.395028   
     86. A(O   9,C   8,C  10)          125.6422         0.441670   
     87. A(N   7,C   8,O   9)          124.2563         0.438283   
     88. A(C  11,C  10,C  15)          121.5651         0.437386   
     89. A(C   8,C  10,C  11)          130.8026         0.415087   
     90. A(C   8,C  10,C  15)          107.6247         0.419125   
     91. A(C  12,C  11,H  32)          120.9496         0.351461   
     92. A(C  10,C  11,H  32)          121.0767         0.354262   
     93. A(C  10,C  11,C  12)          117.9736         0.429490   
     94. A(C  11,C  12,H  33)          119.7529         0.351459   
     95. A(C  11,C  12,C  13)          120.4603         0.424334   
     96. A(C  13,C  12,H  33)          119.7866         0.350243   
     97. A(C  12,C  13,C  14)          120.4602         0.424335   
     98. A(C  14,C  13,H  34)          119.7529         0.351460   
     99. A(C  12,C  13,H  34)          119.7867         0.350243   
    100. A(C  15,C  14,H  35)          121.0766         0.354263   
    101. A(C  13,C  14,C  15)          117.9732         0.429493   
    102. A(C  13,C  14,H  35)          120.9501         0.351461   
    103. A(C  14,C  15,C  16)          130.8025         0.415100   
    104. A(C  10,C  15,C  16)          107.6231         0.419136   
    105. A(C  10,C  15,C  14)          121.5667         0.437388   
    106. A(C  15,C  16,O  17)          125.6459         0.441676   
    107. A(N   7,C  16,O  17)          124.2469         0.438291   
    108. A(N   7,C  16,C  15)          110.0906         0.395049   
    109. A(C   4,C  18,C  19)          110.9391         0.358489   
    110. A(H  36,C  18,H  37)          107.6294         0.283456   
    111. A(C  19,C  18,H  37)          109.4664         0.319174   
    112. A(C   4,C  18,H  37)          109.5721         0.316842   
    113. A(C  19,C  18,H  36)          108.4728         0.319000   
    114. A(C   4,C  18,H  36)          110.6890         0.316670   
    115. A(N   1,C  19,C  18)          112.7675         0.363067   
    116. A(H  38,C  19,H  39)          106.0087         0.283416   
    117. A(C  18,C  19,H  39)          108.6492         0.319270   
    118. A(N   1,C  19,H  39)          108.3346         0.320810   
    119. A(C  18,C  19,H  38)          108.9139         0.318857   
    120. A(N   1,C  19,H  38)          111.8965         0.320394   
    121. D(C   2,N   1,C   0,H  20)     52.4718         0.014714   
    122. D(C  19,N   1,C   0,H  21)     59.3388         0.014714   
    123. D(C   2,N   1,C   0,H  22)    170.5162         0.014714   
    124. D(C   2,N   1,C   0,H  21)    -68.6064         0.014714   
    125. D(C  19,N   1,C   0,H  20)   -179.5830         0.014714   
    126. D(C  19,N   1,C   0,H  22)    -61.5386         0.014714   
    127. D(H  24,C   2,N   1,C  19)    -84.9960         0.013566   
    128. D(H  24,C   2,N   1,C   0)     41.2955         0.013566   
    129. D(C   3,C   2,N   1,C  19)     36.5173         0.013566   
    130. D(H  23,C   2,N   1,C  19)    156.4389         0.013566   
    131. D(H  23,C   2,N   1,C   0)    -77.2696         0.013566   
    132. D(C   3,C   2,N   1,C   0)    162.8087         0.013566   
    133. D(C   4,C   3,C   2,H  23)    178.5147         0.010897   
    134. D(C   4,C   3,C   2,N   1)    -61.4033         0.010897   
    135. D(H  26,C   3,C   2,H  24)   -178.0740         0.010897   
    136. D(C   4,C   3,C   2,H  24)     61.6484         0.010897   
    137. D(H  26,C   3,C   2,N   1)     58.8743         0.010897   
    138. D(H  25,C   3,C   2,H  24)    -62.2824         0.010897   
    139. D(H  26,C   3,C   2,H  23)    -61.2077         0.010897   
    140. D(H  25,C   3,C   2,N   1)    174.6659         0.010897   
    141. D(H  25,C   3,C   2,H  23)     54.5839         0.010897   
    142. D(H  27,C   4,C   3,H  26)     20.3113         0.009486   
    143. D(C  18,C   4,C   3,H  26)    -96.8138         0.009486   
    144. D(H  27,C   4,C   3,H  25)    -97.7648         0.009486   
    145. D(C  18,C   4,C   3,H  25)    145.1101         0.009486   
    146. D(H  27,C   4,C   3,C   2)    140.0594         0.009486   
    147. D(C   5,C   4,C   3,H  26)    139.2189         0.009486   
    148. D(C  18,C   4,C   3,C   2)     22.9344         0.009486   
    149. D(C   5,C   4,C   3,H  25)     21.1429         0.009486   
    150. D(C   5,C   4,C   3,C   2)   -101.0329         0.009486   
    151. D(C   6,C   5,C   4,C   3)    -75.8989         0.009987   
    152. D(H  29,C   5,C   4,C  18)    -78.0257         0.009987   
    153. D(H  29,C   5,C   4,C   3)     46.7930         0.009987   
    154. D(H  28,C   5,C   4,H  27)    -76.8166         0.009987   
    155. D(H  28,C   5,C   4,C  18)     39.7292         0.009987   
    156. D(H  28,C   5,C   4,C   3)    164.5478         0.009987   
    157. D(C   6,C   5,C   4,H  27)     42.7367         0.009987   
    158. D(H  29,C   5,C   4,H  27)    165.4285         0.009987   
    159. D(C   6,C   5,C   4,C  18)    159.2824         0.009987   
    160. D(H  31,C   6,C   5,H  29)    -63.6423         0.010741   
    161. D(H  31,C   6,C   5,C   4)     59.0108         0.010741   
    162. D(H  31,C   6,C   5,H  28)    179.5513         0.010741   
    163. D(H  30,C   6,C   5,H  28)     60.6509         0.010741   
    164. D(H  30,C   6,C   5,H  29)    177.4574         0.010741   
    165. D(N   7,C   6,C   5,H  29)     57.1200         0.010741   
    166. D(H  30,C   6,C   5,C   4)    -59.8895         0.010741   
    167. D(N   7,C   6,C   5,C   4)    179.7731         0.010741   
    168. D(N   7,C   6,C   5,H  28)    -59.6864         0.010741   
    169. D(C  16,N   7,C   6,H  31)     43.3457         0.015928   
    170. D(C  16,N   7,C   6,H  30)    160.7968         0.015928   
    171. D(C  16,N   7,C   6,C   5)    -78.5257         0.015928   
    172. D(C   8,N   7,C   6,H  30)    -41.7931         0.015928   
    173. D(C   8,N   7,C   6,C   5)     78.8844         0.015928   
    174. D(C   8,N   7,C   6,H  31)   -159.2442         0.015928   
    175. D(O   9,C   8,N   7,C   6)     15.3275         0.018396   
    176. D(O   9,C   8,N   7,C  16)    176.6491         0.018396   
    177. D(C  10,C   8,N   7,C  16)     -2.0013         0.018396   
    178. D(C  10,C   8,N   7,C   6)   -163.3229         0.018396   
    179. D(C  15,C  10,C   8,O   9)   -177.3428         0.016069   
    180. D(C  15,C  10,C   8,N   7)      1.2846         0.016069   
    181. D(C  11,C  10,C   8,O   9)      1.6436         0.016069   
    182. D(C  11,C  10,C   8,N   7)   -179.7290         0.016069   
    183. D(C  12,C  11,C  10,C   8)   -179.1010         0.026261   
    184. D(H  32,C  11,C  10,C  15)    179.6830         0.026261   
    185. D(H  32,C  11,C  10,C   8)      0.8168         0.026261   
    186. D(C  12,C  11,C  10,C  15)     -0.2348         0.026261   
    187. D(H  33,C  12,C  11,H  32)      0.1542         0.023788   
    188. D(H  33,C  12,C  11,C  10)   -179.9279         0.023788   
    189. D(C  13,C  12,C  11,H  32)   -179.6831         0.023788   
    190. D(C  13,C  12,C  11,C  10)      0.2348         0.023788   
    191. D(H  34,C  13,C  12,H  33)     -0.0004         0.022787   
    192. D(H  34,C  13,C  12,C  11)    179.8368         0.022787   
    193. D(C  14,C  13,C  12,H  33)   -179.8382         0.022787   
    194. D(C  14,C  13,C  12,C  11)     -0.0010         0.022787   
    195. D(H  35,C  14,C  13,H  34)     -0.1540         0.023788   
    196. D(H  35,C  14,C  13,C  12)    179.6838         0.023788   
    197. D(C  15,C  14,C  13,H  34)    179.9266         0.023788   
    198. D(C  15,C  14,C  13,C  12)     -0.2356         0.023788   
    199. D(C  16,C  15,C  14,H  35)     -0.8184         0.026263   
    200. D(C  16,C  15,C  14,C  13)    179.1009         0.026263   
    201. D(C  10,C  15,C  14,H  35)   -179.6783         0.026263   
    202. D(C  10,C  15,C  14,C  13)      0.2410         0.026263   
    203. D(C  16,C  15,C  10,C  11)   -179.0991         0.029486   
    204. D(C  16,C  15,C  10,C   8)      0.0004         0.029486   
    205. D(C  14,C  15,C  10,C  11)     -0.0046         0.029486   
    206. D(C  14,C  15,C  10,C   8)    179.0949         0.029486   
    207. D(O  17,C  16,C  15,C  14)     -1.6991         0.016074   
    208. D(O  17,C  16,C  15,C  10)    177.2817         0.016074   
    209. D(N   7,C  16,C  15,C  14)    179.7338         0.016074   
    210. D(N   7,C  16,C  15,C  10)     -1.2855         0.016074   
    211. D(O  17,C  16,N   7,C   8)   -176.5897         0.018402   
    212. D(O  17,C  16,N   7,C   6)    -15.2418         0.018402   
    213. D(C  15,C  16,N   7,C   8)      2.0016         0.018402   
    214. D(C  15,C  16,N   7,C   6)    163.3496         0.018402   
    215. D(H  37,C  18,C   4,C   5)    -79.3278         0.009928   
    216. D(H  37,C  18,C   4,C   3)    155.4771         0.009928   
    217. D(H  36,C  18,C   4,H  27)    156.4816         0.009928   
    218. D(H  36,C  18,C   4,C   5)     39.2177         0.009928   
    219. D(H  36,C  18,C   4,C   3)    -85.9774         0.009928   
    220. D(C  19,C  18,C   4,H  27)    -83.0442         0.009928   
    221. D(C  19,C  18,C   4,C   5)    159.6920         0.009928   
    222. D(H  37,C  18,C   4,H  27)     37.9361         0.009928   
    223. D(C  19,C  18,C   4,C   3)     34.4969         0.009928   
    224. D(H  39,C  19,C  18,H  37)    -61.6436         0.010793   
    225. D(H  39,C  19,C  18,H  36)   -178.8212         0.010793   
    226. D(H  39,C  19,C  18,C   4)     59.3990         0.010793   
    227. D(H  38,C  19,C  18,H  37)     53.4008         0.010793   
    228. D(H  38,C  19,C  18,H  36)    -63.7768         0.010793   
    229. D(H  38,C  19,C  18,C   4)    174.4434         0.010793   
    230. D(N   1,C  19,C  18,H  37)    178.2442         0.010793   
    231. D(N   1,C  19,C  18,H  36)     61.0665         0.010793   
    232. D(N   1,C  19,C  18,C   4)    -60.7132         0.010793   
    233. D(H  39,C  19,N   1,C   2)    -97.2377         0.013152   
    234. D(H  39,C  19,N   1,C   0)    137.0752         0.013152   
    235. D(H  38,C  19,N   1,C   2)    146.2548         0.013152   
    236. D(H  38,C  19,N   1,C   0)     20.5677         0.013152   
    237. D(C  18,C  19,N   1,C   2)     23.0553         0.013152   
    238. D(C  18,C  19,N   1,C   0)   -102.6318         0.013152   
    -----------------------------------------------------------------

Number of atoms                         .... 40
Number of degrees of freedom            .... 238

         *************************************************************
         *                GEOMETRY OPTIMIZATION CYCLE   1            *
         *************************************************************
---------------------------------
CARTESIAN COORDINATES (ANGSTROEM)
---------------------------------
  C     -4.943849    1.228782    1.340222
  N     -4.421667    0.563170    0.136680
  C     -3.282938    1.331920   -0.419841
  C     -2.452047    0.486390   -1.392224
  C     -1.832837   -0.753502   -0.690081
  C     -0.341627   -0.543064   -0.340607
  C      0.571797   -0.659888   -1.569128
  N      1.964358   -0.447837   -1.184055
  C      2.824681   -1.403628   -0.558224
  O      2.588708   -2.639563   -0.501185
  C      3.981839   -0.731648    0.021972
  C      5.076566   -1.241086    0.718075
  C      6.044738   -0.332201    1.181582
  C      5.897458    1.052371    0.946467
  C      4.780564    1.541721    0.245508
  C      3.838057    0.620413   -0.207664
  C      2.588830    0.814380   -0.934911
  O      2.102647    1.925281   -1.275565
  C     -2.624853   -1.141346    0.580793
  C     -4.124059   -0.869994    0.396838
  H     -5.167465    2.296300    1.125039
  H     -4.211861    1.170837    2.176206
  H     -5.896113    0.750935    1.655591
  H     -3.677884    2.215771   -0.966058
  H     -2.612910    1.705094    0.388947
  H     -1.674828    1.131709   -1.852406
  H     -3.117857    0.145887   -2.215721
  H     -1.906174   -1.613118   -1.394514
  H     -0.021864   -1.316921    0.392324
  H     -0.203792    0.450637    0.139889
  H      0.466935   -1.669857   -2.021234
  H      0.292848    0.086449   -2.341314
  H      5.178915   -2.303272    0.898233
  H      6.907128   -0.696582    1.724440
  H      6.647699    1.742259    1.310304
  H      4.657174    2.601660    0.065291
  H     -2.266634   -0.560492    1.459858
  H     -2.467939   -2.219525    0.802939
  H     -4.672150   -1.252960    1.287384
  H     -4.489595   -1.465484   -0.467515

----------------------------
CARTESIAN COORDINATES (A.U.)
----------------------------
  NO LB      ZA    FRAG     MASS         X           Y           Z
   0 C     6.0000    0    12.011   -9.342521    2.322061    2.532653
   1 N     7.0000    0    14.007   -8.355740    1.064237    0.258288
   2 C     6.0000    0    12.011   -6.203854    2.516964   -0.793385
   3 C     6.0000    0    12.011   -4.633697    0.919144   -2.630922
   4 C     6.0000    0    12.011   -3.463560   -1.423912   -1.304064
   5 C     6.0000    0    12.011   -0.645581   -1.026242   -0.643654
   6 C     6.0000    0    12.011    1.080540   -1.247008   -2.965222
   7 N     7.0000    0    14.007    3.712099   -0.846289   -2.237540
   8 C     6.0000    0    12.011    5.337874   -2.652473   -1.054890
   9 O     8.0000    0    15.999    4.891949   -4.988051   -0.947102
  10 C     6.0000    0    12.011    7.524585   -1.382614    0.041521
  11 C     6.0000    0    12.011    9.593319   -2.345313    1.356965
  12 C     6.0000    0    12.011   11.422899   -0.627769    2.232866
  13 C     6.0000    0    12.011   11.144581    1.988693    1.788563
  14 C     6.0000    0    12.011    9.033957    2.913430    0.463943
  15 C     6.0000    0    12.011    7.252877    1.172411   -0.392428
  16 C     6.0000    0    12.011    4.892180    1.538955   -1.766726
  17 O     8.0000    0    15.999    3.973427    3.638254   -2.410469
  18 C     6.0000    0    12.011   -4.960253   -2.156831    1.097540
  19 C     6.0000    0    12.011   -7.793342   -1.644050    0.749915
  20 H     1.0000    0     1.008   -9.765094    4.339378    2.126016
  21 H     1.0000    0     1.008   -7.959264    2.212561    4.112433
  22 H     1.0000    0     1.008  -11.142039    1.419061    3.128614
  23 H     1.0000    0     1.008   -6.950194    4.187200   -1.825585
  24 H     1.0000    0     1.008   -4.937684    3.222161    0.735003
  25 H     1.0000    0     1.008   -3.164966    2.138620   -3.500540
  26 H     1.0000    0     1.008   -5.891896    0.275686   -4.187106
  27 H     1.0000    0     1.008   -3.602147   -3.048351   -2.635250
  28 H     1.0000    0     1.008   -0.041317   -2.488620    0.741385
  29 H     1.0000    0     1.008   -0.385111    0.851581    0.264352
  30 H     1.0000    0     1.008    0.882379   -3.155572   -3.819579
  31 H     1.0000    0     1.008    0.553403    0.163365   -4.424442
  32 H     1.0000    0     1.008    9.786731   -4.352553    1.697414
  33 H     1.0000    0     1.008   13.052580   -1.316349    3.258719
  34 H     1.0000    0     1.008   12.562331    3.292392    2.476116
  35 H     1.0000    0     1.008    8.800783    4.916425    0.123382
  36 H     1.0000    0     1.008   -4.283318   -1.059176    2.758732
  37 H     1.0000    0     1.008   -4.663729   -4.194294    1.517335
  38 H     1.0000    0     1.008   -8.829084   -2.367751    2.432803
  39 H     1.0000    0     1.008   -8.484105   -2.769363   -0.883475

--------------------------------
INTERNAL COORDINATES (ANGSTROEM)
--------------------------------
 C      0   0   0     0.000000000000     0.00000000     0.00000000
 N      1   0   0     1.471131102734     0.00000000     0.00000000
 C      2   1   0     1.482361602775   110.19223184     0.00000000
 C      3   2   1     1.533241511788   111.61707720   162.80874152
 C      4   3   2     1.553627364658   111.68295211   298.59670026
 C      5   4   3     1.546002423226   112.20753051   258.96708690
 C      6   5   4     1.535335500206   112.49573742   284.10113459
 N      7   6   5     1.460298935373   110.19946396   179.77311620
 C      8   7   6     1.430159620662   126.29898759    78.88439766
 O      9   8   7     1.259552312719   124.25633236    15.32746724
 C      9   8   7     1.458492082865   110.08625820   196.67706597
 C     11   9   8     1.393740889470   130.80256301   180.27102415
 C     12  11   9     1.406509048623   117.97360963   180.89895383
 C     13  12  11     1.412094219523   120.46027090     0.23482044
 C     14  13  12     1.406506007601   120.46019415     0.00000000
 C     11   9   8     1.378939775241   107.62473345     1.28463206
 C      8   7   6     1.430115298362   126.19285842   281.47427770
 O     17   8   7     1.259571390992   124.24691599   344.75818958
 C      5   4   3     1.546878481481   111.55108523    22.93436859
 C      2   1   3     1.486678094789   111.34947997   127.94518317
 H      1   2   3     1.111711527002   110.33493783    52.47178008
 H      1   2   3     1.112669449309   110.95260616   291.39362427
 H      1   2   3     1.111126494719   109.98820486   170.51618383
 H      3   2   1     1.111543046493   108.89939962   282.73037249
 H      3   2   1     1.114600549078   111.28406039    41.29547279
 H      4   3   2     1.110078131866   108.76866968   174.66592324
 H      4   3   2     1.112381480481   108.29698480    58.87430928
 H      5   4   3     1.113797034703   107.68959851   140.05942754
 H      6   5   4     1.112785191930   109.35359664   164.54784942
 H      6   5   4     1.112347324644   109.80175159    46.79296264
 H      7   6   5     1.111500452200   109.78436267   300.11047069
 H      7   6   5     1.109550666155   110.86195566    59.01081877
 H     12  11   9     1.082206690684   121.07672610     0.81680733
 H     13  12  11     1.082212933496   119.75293900   180.07211443
 H     14  13  12     1.082212720861   119.78668328   179.83684996
 H     15  14  13     1.082207901889   120.95010621   179.68384683
 H     19   5   4     1.112864544993   110.68896818   274.02260291
 H     19   5   4     1.111953598291   109.57208920   155.47714315
 H     20   2   1     1.113615229580   111.89647987    20.56766237
 H     20   2   1     1.111454459708   108.33458094   137.07515645

---------------------------
INTERNAL COORDINATES (A.U.)
---------------------------
 C      0   0   0     0.000000000000     0.00000000     0.00000000
 N      1   0   0     2.780034891261     0.00000000     0.00000000
 C      2   1   0     2.801257460686   110.19223184     0.00000000
 C      3   2   1     2.897406554439   111.61707720   162.80874152
 C      4   3   2     2.935930233369   111.68295211   298.59670026
 C      5   4   3     2.921521182275   112.20753051   258.96708690
 C      6   5   4     2.901363619076   112.49573742   284.10113459
 N      7   6   5     2.759565061511   110.19946396   179.77311620
 C      8   7   6     2.702610010843   126.29898759    78.88439766
 O      9   8   7     2.380208922385   124.25633236    15.32746724
 C      9   8   7     2.756150605107   110.08625820   196.67706597
 C     11   9   8     2.633788582747   130.80256301   180.27102415
 C     12  11   9     2.657916906779   117.97360963   180.89895383
 C     13  12  11     2.668471350191   120.46027090     0.23482044
 C     14  13  12     2.657911160080   120.46019415     0.00000000
 C     11   9   8     2.605818530376   107.62473345     1.28463206
 C      8   7   6     2.702526253835   126.19285842   281.47427770
 O     17   8   7     2.380244975097   124.24691599   344.75818958
 C      5   4   3     2.923176692454   111.55108523    22.93436859
 C      2   1   3     2.809414448450   111.34947997   127.94518317
 H      1   2   3     2.100830325957   110.33493783    52.47178008
 H      1   2   3     2.102640536774   110.95260616   291.39362427
 H      1   2   3     2.099724775162   109.98820486   170.51618383
 H      3   2   1     2.100511943935   108.89939962   282.73037249
 H      3   2   1     2.106289786475   111.28406039    41.29547279
 H      4   3   2     2.097743656481   108.76866968   174.66592324
 H      4   3   2     2.102096354556   108.29698480    58.87430928
 H      5   4   3     2.104771364363   107.68959851   140.05942754
 H      6   5   4     2.102859258631   109.35359664   164.54784942
 H      6   5   4     2.102031809377   109.80175159    46.79296264
 H      7   6   5     2.100431452388   109.78436267   300.11047069
 H      7   6   5     2.096746890744   110.86195566    59.01081877
 H     12  11   9     2.045074265690   121.07672610     0.81680733
 H     13  12  11     2.045086062894   119.75293900   180.07211443
 H     14  13  12     2.045085661074   119.78668328   179.83684996
 H     15  14  13     2.045076554535   120.95010621   179.68384683
 H     19   5   4     2.103009214187   110.68896818   274.02260291
 H     19   5   4     2.101287774399   109.57208920   155.47714315
 H     20   2   1     2.104427802470   111.89647987    20.56766237
 H     20   2   1     2.100344539174   108.33458094   137.07515645

---------------------
BASIS SET INFORMATION
---------------------
There are 4 groups of distinct atoms

 Group   1 Type C   : 10s4p1d contracted to 3s2p1d pattern {631/31/1}
 Group   2 Type N   : 10s4p1d contracted to 3s2p1d pattern {631/31/1}
 Group   3 Type O   : 10s4p1d contracted to 3s2p1d pattern {631/31/1}
 Group   4 Type H   : 4s contracted to 2s pattern {31}

Atom   0C    basis set group =>   1
Atom   1N    basis set group =>   2
Atom   2C    basis set group =>   1
Atom   3C    basis set group =>   1
Atom   4C    basis set group =>   1
Atom   5C    basis set group =>   1
Atom   6C    basis set group =>   1
Atom   7N    basis set group =>   2
Atom   8C    basis set group =>   1
Atom   9O    basis set group =>   3
Atom  10C    basis set group =>   1
Atom  11C    basis set group =>   1
Atom  12C    basis set group =>   1
Atom  13C    basis set group =>   1
Atom  14C    basis set group =>   1
Atom  15C    basis set group =>   1
Atom  16C    basis set group =>   1
Atom  17O    basis set group =>   3
Atom  18C    basis set group =>   1
Atom  19C    basis set group =>   1
Atom  20H    basis set group =>   4
Atom  21H    basis set group =>   4
Atom  22H    basis set group =>   4
Atom  23H    basis set group =>   4
Atom  24H    basis set group =>   4
Atom  25H    basis set group =>   4
Atom  26H    basis set group =>   4
Atom  27H    basis set group =>   4
Atom  28H    basis set group =>   4
Atom  29H    basis set group =>   4
Atom  30H    basis set group =>   4
Atom  31H    basis set group =>   4
Atom  32H    basis set group =>   4
Atom  33H    basis set group =>   4
Atom  34H    basis set group =>   4
Atom  35H    basis set group =>   4
Atom  36H    basis set group =>   4
Atom  37H    basis set group =>   4
Atom  38H    basis set group =>   4
Atom  39H    basis set group =>   4
---------------------------------
AUXILIARY/J BASIS SET INFORMATION
---------------------------------
There are 4 groups of distinct atoms

 Group   1 Type C   : 12s5p4d2f1g contracted to 6s4p3d1f1g pattern {711111/2111/211/2/1}
 Group   2 Type N   : 12s5p4d2f1g contracted to 6s4p3d1f1g pattern {711111/2111/211/2/1}
 Group   3 Type O   : 12s5p4d2f1g contracted to 6s4p3d1f1g pattern {711111/2111/211/2/1}
 Group   4 Type H   : 5s2p1d contracted to 3s1p1d pattern {311/2/1}

Atom   0C    basis set group =>   1
Atom   1N    basis set group =>   2
Atom   2C    basis set group =>   1
Atom   3C    basis set group =>   1
Atom   4C    basis set group =>   1
Atom   5C    basis set group =>   1
Atom   6C    basis set group =>   1
Atom   7N    basis set group =>   2
Atom   8C    basis set group =>   1
Atom   9O    basis set group =>   3
Atom  10C    basis set group =>   1
Atom  11C    basis set group =>   1
Atom  12C    basis set group =>   1
Atom  13C    basis set group =>   1
Atom  14C    basis set group =>   1
Atom  15C    basis set group =>   1
Atom  16C    basis set group =>   1
Atom  17O    basis set group =>   3
Atom  18C    basis set group =>   1
Atom  19C    basis set group =>   1
Atom  20H    basis set group =>   4
Atom  21H    basis set group =>   4
Atom  22H    basis set group =>   4
Atom  23H    basis set group =>   4
Atom  24H    basis set group =>   4
Atom  25H    basis set group =>   4
Atom  26H    basis set group =>   4
Atom  27H    basis set group =>   4
Atom  28H    basis set group =>   4
Atom  29H    basis set group =>   4
Atom  30H    basis set group =>   4
Atom  31H    basis set group =>   4
Atom  32H    basis set group =>   4
Atom  33H    basis set group =>   4
Atom  34H    basis set group =>   4
Atom  35H    basis set group =>   4
Atom  36H    basis set group =>   4
Atom  37H    basis set group =>   4
Atom  38H    basis set group =>   4
Atom  39H    basis set group =>   4

======================   ALLOCATED NODES   ======================
	gpua091: flags=0x11 slots=1 max_slots=0 slots_inuse=0 state=UP
=================================================================


           ************************************************************
           *        Program running with 16 parallel MPI-processes    *
           *              working on a common directory               *
           ************************************************************
------------------------------------------------------------------------------
                           ORCA GTO INTEGRAL CALCULATION
                           -- RI-GTO INTEGRALS CHOSEN --
------------------------------------------------------------------------------
------------------------------------------------------------------------------
                   ___                                                        
                  /   \      - P O W E R E D   B Y -                         
                 /     \                                                     
                 |  |  |   _    _      __       _____    __    __             
                 |  |  |  | |  | |    /  \     |  _  \  |  |  /  |          
                  \  \/   | |  | |   /    \    | | | |  |  | /  /          
                 / \  \   | |__| |  /  /\  \   | |_| |  |  |/  /          
                |  |  |   |  __  | /  /__\  \  |    /   |      \           
                |  |  |   | |  | | |   __   |  |    \   |  |\   \          
                \     /   | |  | | |  |  |  |  | |\  \  |  | \   \       
                 \___/    |_|  |_| |__|  |__|  |_| \__\ |__|  \__/        
                                                                              
                      - O R C A' S   B I G   F R I E N D -                    
                                      &                                       
                       - I N T E G R A L  F E E D E R -                       
                                                                              
 v1 FN, 2020, v2 2021                                                         
------------------------------------------------------------------------------


Reading SHARK input file compound_medoid_10/compound_medoid_10.SHARKINP.tmp ... ok
----------------------
SHARK INTEGRAL PACKAGE
----------------------

Number of atoms                             ...     40
Number of basis functions                   ...    320
Number of shells                            ...    160
Maximum angular momentum                    ...      2
Integral batch strategy                     ... SHARK/LIBINT Hybrid
RI-J (if used) integral strategy            ... SPLIT-RIJ (Revised 2003 algorithm where possible)
Printlevel                                  ...      1
Contraction scheme used                     ... SEGMENTED contraction
Coulomb Range Separation                    ... NOT USED
Exchange Range Separation                   ... NOT USED
Finite Nucleus Model                        ... NOT USED
Auxiliary Coulomb fitting basis             ... AVAILABLE
   # of basis functions in Aux-J            ...   1200
   # of shells in Aux-J                     ...    400
   Maximum angular momentum in Aux-J        ...      4
Auxiliary J/K fitting basis                 ... NOT available
Auxiliary Correlation fitting basis         ... NOT available
Auxiliary 'external' fitting basis          ... NOT available
Integral threshold                          ...     2.500000e-11
Primitive cut-off                           ...     2.500000e-12
Primitive pair pre-selection threshold      ...     2.500000e-12

Calculating pre-screening integrals         ... done (  0.1 sec) Dimension = 160
Organizing shell pair data                  ... done (  0.1 sec)
Shell pair information
Total number of shell pairs                 ...     12880
Shell pairs after pre-screening             ...      8747
Total number of primitive shell pairs       ...     72870
Primitive shell pairs kept                  ...     28258
          la=0 lb=0:   3292 shell pairs
          la=1 lb=0:   2906 shell pairs
          la=1 lb=1:    663 shell pairs
          la=2 lb=0:   1202 shell pairs
          la=2 lb=1:    559 shell pairs
          la=2 lb=2:    125 shell pairs

Calculating one electron integrals          ... done (  0.0 sec)
Calculating RI/J V-Matrix + Cholesky decomp.... done (  0.2 sec)
Calculating Nuclear repulsion               ... done (  0.0 sec) ENN=   1496.571889753831 Eh

SHARK setup successfully completed in   0.5 seconds

Maximum memory used throughout the entire GTOINT-calculation: 18.5 MB

======================   ALLOCATED NODES   ======================
	gpua091: flags=0x11 slots=1 max_slots=0 slots_inuse=0 state=UP
=================================================================


           ************************************************************
           *        Program running with 16 parallel MPI-processes    *
           *              working on a common directory               *
           ************************************************************
-------------------------------------------------------------------------------
                                 ORCA SCF
-------------------------------------------------------------------------------

------------
SCF SETTINGS
------------
Hamiltonian:
 Density Functional     Method          .... DFT(GTOs)
 Exchange Functional    Exchange        .... B88
   X-Alpha parameter    XAlpha          ....  0.666667
   Becke's b parameter  XBeta           ....  0.004200
 Correlation Functional Correlation     .... LYP
 LDA part of GGA corr.  LDAOpt          .... VWN-5
 Gradients option       PostSCFGGA      .... off
 Hybrid DFT is turned on
   Fraction HF Exchange ScalHFX         ....  0.200000
   Scaling of DF-GGA-X  ScalDFX         ....  0.720000
   Scaling of DF-GGA-C  ScalDFC         ....  0.810000
   Scaling of DF-LDA-C  ScalLDAC        ....  1.000000
   Perturbative correction              ....  0.000000
   Density functional embedding theory  .... OFF
   NL short-range parameter             ....  4.800000
 RI-approximation to the Coulomb term is turned on
   Number of AuxJ basis functions       .... 1200
   RIJ-COSX (HFX calculated with COS-X)).... on


General Settings:
 Integral files         IntName         .... compound_medoid_10/compound_medoid_10
 Hartree-Fock type      HFTyp           .... RHF
 Total Charge           Charge          ....    0
 Multiplicity           Mult            ....    1
 Number of Electrons    NEL             ....  146
 Basis Dimension        Dim             ....  320
 Nuclear Repulsion      ENuc            ....   1496.5718897538 Eh

Convergence Acceleration:
 DIIS                   CNVDIIS         .... on
   Start iteration      DIISMaxIt       ....    12
   Startup error        DIISStart       ....  0.200000
   # of expansion vecs  DIISMaxEq       ....     5
   Bias factor          DIISBfac        ....   1.050
   Max. coefficient     DIISMaxC        ....  10.000
 Trust-Rad. Augm. Hess. CNVTRAH         .... auto
   Auto Start mean grad. ratio tolernc. ....  1.125000
   Auto Start start iteration           ....    20
   Auto Start num. interpolation iter.  ....    10
   Max. Number of Micro iterations      ....    16
   Max. Number of Macro iterations      .... Maxiter - #DIIS iter
   Number of Davidson start vectors     ....     2
   Converg. threshold I  (grad. norm)   ....   1.000e-05
   Converg. threshold II (energy diff.) ....   1.000e-08
   Grad. Scal. Fac. for Micro threshold ....   0.100
   Minimum threshold for Micro iter.    ....   0.010
   NR start threshold (gradient norm)   ....   0.001
   Initial trust radius                 ....   0.400
   Minimum AH scaling param. (alpha)    ....   1.000
   Maximum AH scaling param. (alpha)    .... 1000.000
   Orbital update algorithm             .... Taylor
   White noise on init. David. guess    .... on
   Maximum white noise                  ....   0.010
   Quad. conv. algorithm                .... NR
 SOSCF                  CNVSOSCF        .... on
   Start iteration      SOSCFMaxIt      ....   150
   Startup grad/error   SOSCFStart      ....  0.003300
 Level Shifting         CNVShift        .... on
   Level shift para.    LevelShift      ....    0.2500
   Turn off err/grad.   ShiftErr        ....    0.0010
 Zerner damping         CNVZerner       .... off
 Static damping         CNVDamp         .... on
   Fraction old density DampFac         ....    0.7000
   Max. Damping (<1)    DampMax         ....    0.9800
   Min. Damping (>=0)   DampMin         ....    0.0000
   Turn off err/grad.   DampErr         ....    0.1000
 Fernandez-Rico         CNVRico         .... off

SCF Procedure:
 Maximum # iterations   MaxIter         ....   125
 SCF integral mode      SCFMode         .... Direct
   Integral package                     .... SHARK and LIBINT hybrid scheme
 Reset frequency        DirectResetFreq ....    20
 Integral Threshold     Thresh          ....  2.500e-11 Eh
 Primitive CutOff       TCut            ....  2.500e-12 Eh

Convergence Tolerance:
 Convergence Check Mode ConvCheckMode   .... Total+1el-Energy
 Convergence forced     ConvForced      .... 0
 Energy Change          TolE            ....  1.000e-08 Eh
 1-El. energy change                    ....  1.000e-05 Eh
 Orbital Gradient       TolG            ....  1.000e-05
 Orbital Rotation angle TolX            ....  1.000e-05
 DIIS Error             TolErr          ....  5.000e-07


Diagonalization of the overlap matrix:
Smallest eigenvalue                        ... 3.920e-04
Time for diagonalization                   ...    0.026 sec
Threshold for overlap eigenvalues          ... 1.000e-08
Number of eigenvalues below threshold      ... 0
Time for construction of square roots      ...    0.024 sec
Total time needed                          ...    0.051 sec

Time for model grid setup =    0.240 sec

------------------------------
INITIAL GUESS: MODEL POTENTIAL
------------------------------
Loading Hartree-Fock densities                     ... done
Calculating cut-offs                               ... done
Initializing the effective Hamiltonian             ... done
Setting up the integral package (SHARK)            ... done
Starting the Coulomb interaction                   ... done (   0.1 sec)
Reading the grid                                   ... done
Mapping shells                                     ... done
Starting the XC term evaluation                    ... done (   0.0 sec)
  promolecular density results
     # of electrons  =    145.999611064
     EX              =   -117.718487941
     EC              =     -4.928919488
     EX+EC           =   -122.647407429
Transforming the Hamiltonian                       ... done (   0.0 sec)
Diagonalizing the Hamiltonian                      ... done (   0.0 sec)
Back transforming the eigenvectors                 ... done (   0.0 sec)
Now organizing SCF variables                       ... done
                      ------------------
                      INITIAL GUESS DONE (   0.4 sec)
                      ------------------
-------------------
DFT GRID GENERATION
-------------------

General Integration Accuracy     IntAcc      ... 4.388
Radial Grid Type                 RadialGrid  ... OptM3 with GC (2021)
Angular Grid (max. ang.)         AngularGrid ... 4 (Lebedev-302)
Angular grid pruning method      GridPruning ... 4 (adaptive)
Weight generation scheme         WeightScheme... Becke
Basis function cutoff            BFCut       ... 1.0000e-11
Integration weight cutoff        WCut        ... 1.0000e-14
Angular grids for H and He will be reduced by one unit
Partially contracted basis set               ... off
Rotationally invariant grid construction     ... off

Total number of grid points                  ...   183009
Total number of batches                      ...     2881
Average number of points per batch           ...       63
Average number of grid points per atom       ...     4575
Time for grid setup =    0.934 sec

--------------------
COSX GRID GENERATION
--------------------

GRIDX 1
-------
General Integration Accuracy     IntAcc      ... 3.816
Radial Grid Type                 RadialGrid  ... OptM3 with GC (2021)
Angular Grid (max. ang.)         AngularGrid ... 1 (Lebedev-50)
Angular grid pruning method      GridPruning ... 4 (adaptive)
Weight generation scheme         WeightScheme... Becke
Basis function cutoff            BFCut       ... 1.0000e-11
Integration weight cutoff        WCut        ... 1.0000e-14
Angular grids for H and He will be reduced by one unit
Partially contracted basis set               ... on
Rotationally invariant grid construction     ... off

Total number of grid points                  ...    23284
Total number of batches                      ...      387
Average number of points per batch           ...       60
Average number of grid points per atom       ...      582
UseSFitting                                  ... on

GRIDX 2
-------
General Integration Accuracy     IntAcc      ... 4.020
Radial Grid Type                 RadialGrid  ... OptM3 with GC (2021)
Angular Grid (max. ang.)         AngularGrid ... 2 (Lebedev-110)
Angular grid pruning method      GridPruning ... 4 (adaptive)
Weight generation scheme         WeightScheme... Becke
Basis function cutoff            BFCut       ... 1.0000e-11
Integration weight cutoff        WCut        ... 1.0000e-14
Angular grids for H and He will be reduced by one unit
Partially contracted basis set               ... on
Rotationally invariant grid construction     ... off

Total number of grid points                  ...    49893
Total number of batches                      ...      796
Average number of points per batch           ...       62
Average number of grid points per atom       ...     1247
UseSFitting                                  ... on

GRIDX 3
-------
General Integration Accuracy     IntAcc      ... 4.338
Radial Grid Type                 RadialGrid  ... OptM3 with GC (2021)
Angular Grid (max. ang.)         AngularGrid ... 3 (Lebedev-194)
Angular grid pruning method      GridPruning ... 4 (adaptive)
Weight generation scheme         WeightScheme... Becke
Basis function cutoff            BFCut       ... 1.0000e-11
Integration weight cutoff        WCut        ... 1.0000e-14
Angular grids for H and He will be reduced by one unit
Partially contracted basis set               ... on
Rotationally invariant grid construction     ... off

Total number of grid points                  ...   108837
Total number of batches                      ...     1722
Average number of points per batch           ...       63
Average number of grid points per atom       ...     2721
UseSFitting                                  ... on

Time for X-Grid setup             =    0.823 sec

--------------
SCF ITERATIONS
--------------
ITER       Energy         Delta-E        Max-DP      RMS-DP      [F,P]     Damp
               ***  Starting incremental Fock matrix formation  ***
  0   -880.6228063372   0.000000000000 0.11000322  0.00214656  0.2610954 0.7000
  1   -880.8741368360  -0.251330498787 0.05603991  0.00136705  0.0924409 0.7000
                               ***Turning on DIIS***
  2   -880.9642393934  -0.090102557420 0.07489642  0.00205209  0.0377275 0.0000
  3   -881.1218536614  -0.157614268060 0.04399604  0.00095560  0.0410384 0.0000
  4   -881.1492705718  -0.027416910313 0.01285276  0.00031972  0.0264330 0.0000
  5   -881.1524501161  -0.003179544329 0.00407768  0.00008831  0.0055753 0.0000
                      *** Initiating the SOSCF procedure ***
                           *** Shutting down DIIS ***
                      *** Re-Reading the Fockian *** 
                      *** Removing any level shift *** 
ITER      Energy       Delta-E        Grad      Rot      Max-DP    RMS-DP
  6   -881.15259607  -0.0001459566  0.000380  0.000380  0.001070  0.000027
               *** Restarting incremental Fock matrix formation ***
  7   -881.15261793  -0.0000218572  0.000140  0.000604  0.000813  0.000017
  8   -881.15261696   0.0000009676  0.000225  0.000456  0.000431  0.000009
  9   -881.15261974  -0.0000027809  0.000040  0.000109  0.000182  0.000003
 10   -881.15261960   0.0000001435  0.000071  0.000083  0.000118  0.000002
 11   -881.15261981  -0.0000002116  0.000014  0.000048  0.000050  0.000001
                 **** Energy Check signals convergence ****
              ***Rediagonalizing the Fockian in SOSCF/NRSCF***

               *****************************************************
               *                     SUCCESS                       *
               *           SCF CONVERGED AFTER  12 CYCLES          *
               *****************************************************

Old exchange energy                            =    -23.945707691 Eh
New exchange energy                            =    -23.945691268 Eh
Exchange energy change after final integration =      0.000016423 Eh
Total energy after final integration           =   -881.152603383 Eh
Final COS-X integration done in                =     2.537 sec

----------------
TOTAL SCF ENERGY
----------------

Total Energy       :         -881.15260338 Eh          -23977.38132 eV

Components:
Nuclear Repulsion  :         1496.57188975 Eh           40723.79148 eV
Electronic Energy  :        -2377.72449314 Eh          -64701.17280 eV
One Electron Energy:        -4168.19589751 Eh         -113422.37665 eV
Two Electron Energy:         1790.47140437 Eh           48721.20385 eV
Max COSX asymmetry :            0.00000319 Eh               0.00009 eV

Virial components:
Potential Energy   :        -1756.47016582 Eh          -47795.98311 eV
Kinetic Energy     :          875.31756244 Eh           23818.60179 eV
Virial Ratio       :            2.00666620


DFT components:
N(Alpha)           :       73.000150485506 electrons
N(Beta)            :       73.000150485506 electrons
N(Total)           :      146.000300971012 electrons
E(X)               :      -95.081493069266 Eh       
E(C)               :       -5.802856116780 Eh       
E(XC)              :     -100.884349186046 Eh       
DFET-embed. en.    :        0.000000000000 Eh       

---------------
SCF CONVERGENCE
---------------

  Last Energy change         ...    5.6529e-09  Tolerance :   1.0000e-08
  Last MAX-Density change    ...    3.9968e-15  Tolerance :   1.0000e-07
  Last RMS-Density change    ...    4.6691e-17  Tolerance :   5.0000e-09
  Last Orbital Gradient      ...    2.1372e-05  Tolerance :   1.0000e-05
  Last Orbital Rotation      ...    3.1415e-05  Tolerance :   1.0000e-05

             **** THE GBW FILE WAS UPDATED (compound_medoid_10/compound_medoid_10.gbw) ****
             **** DENSITY compound_medoid_10/compound_medoid_10.scfp WAS UPDATED ****
             **** ENERGY FILE WAS UPDATED (compound_medoid_10/compound_medoid_10.en.tmp) ****
             **** THE GBW FILE WAS UPDATED (compound_medoid_10/compound_medoid_10.gbw) ****
             **** DENSITY compound_medoid_10/compound_medoid_10.scfp WAS UPDATED ****
----------------
ORBITAL ENERGIES
----------------

  NO   OCC          E(Eh)            E(eV) 
   0   2.0000     -19.135480      -520.7029 
   1   2.0000     -19.135326      -520.6987 
   2   2.0000     -14.381859      -391.3503 
   3   2.0000     -14.306316      -389.2946 
   4   2.0000     -10.303808      -280.3809 
   5   2.0000     -10.303748      -280.3792 
   6   2.0000     -10.225559      -278.2516 
   7   2.0000     -10.213394      -277.9206 
   8   2.0000     -10.213101      -277.9126 
   9   2.0000     -10.212764      -277.9034 
  10   2.0000     -10.212687      -277.9013 
  11   2.0000     -10.210932      -277.8536 
  12   2.0000     -10.210424      -277.8398 
  13   2.0000     -10.194284      -277.4006 
  14   2.0000     -10.193986      -277.3925 
  15   2.0000     -10.188636      -277.2469 
  16   2.0000     -10.183501      -277.1072 
  17   2.0000     -10.179433      -276.9965 
  18   2.0000     -10.172800      -276.8160 
  19   2.0000     -10.172605      -276.8106 
  20   2.0000      -1.043788       -28.4029 
  21   2.0000      -1.018182       -27.7061 
  22   2.0000      -0.945133       -25.7184 
  23   2.0000      -0.902952       -24.5706 
  24   2.0000      -0.882873       -24.0242 
  25   2.0000      -0.817168       -22.2363 
  26   2.0000      -0.794875       -21.6296 
  27   2.0000      -0.772477       -21.0202 
  28   2.0000      -0.742296       -20.1989 
  29   2.0000      -0.739666       -20.1273 
  30   2.0000      -0.688479       -18.7345 
  31   2.0000      -0.664179       -18.0732 
  32   2.0000      -0.652169       -17.7464 
  33   2.0000      -0.625819       -17.0294 
  34   2.0000      -0.618184       -16.8216 
  35   2.0000      -0.600680       -16.3453 
  36   2.0000      -0.585102       -15.9214 
  37   2.0000      -0.567355       -15.4385 
  38   2.0000      -0.522936       -14.2298 
  39   2.0000      -0.519195       -14.1280 
  40   2.0000      -0.501132       -13.6365 
  41   2.0000      -0.487319       -13.2606 
  42   2.0000      -0.481383       -13.0991 
  43   2.0000      -0.472985       -12.8706 
  44   2.0000      -0.461599       -12.5607 
  45   2.0000      -0.457219       -12.4416 
  46   2.0000      -0.449692       -12.2367 
  47   2.0000      -0.447454       -12.1758 
  48   2.0000      -0.434534       -11.8243 
  49   2.0000      -0.428672       -11.6647 
  50   2.0000      -0.419293       -11.4095 
  51   2.0000      -0.405907       -11.0453 
  52   2.0000      -0.402494       -10.9524 
  53   2.0000      -0.399677       -10.8758 
  54   2.0000      -0.387025       -10.5315 
  55   2.0000      -0.385868       -10.5000 
  56   2.0000      -0.376363       -10.2414 
  57   2.0000      -0.375941       -10.2299 
  58   2.0000      -0.371135       -10.0991 
  59   2.0000      -0.369928       -10.0662 
  60   2.0000      -0.361898        -9.8478 
  61   2.0000      -0.354295        -9.6409 
  62   2.0000      -0.352106        -9.5813 
  63   2.0000      -0.339879        -9.2486 
  64   2.0000      -0.314588        -8.5604 
  65   2.0000      -0.308137        -8.3848 
  66   2.0000      -0.301379        -8.2009 
  67   2.0000      -0.277336        -7.5467 
  68   2.0000      -0.275836        -7.5059 
  69   2.0000      -0.273042        -7.4299 
  70   2.0000      -0.259434        -7.0595 
  71   2.0000      -0.257047        -6.9946 
  72   2.0000      -0.193968        -5.2781 
  73   0.0000      -0.083184        -2.2636 
  74   0.0000      -0.044144        -1.2012 
  75   0.0000       0.029083         0.7914 
  76   0.0000       0.065480         1.7818 
  77   0.0000       0.074709         2.0329 
  78   0.0000       0.090615         2.4658 
  79   0.0000       0.096732         2.6322 
  80   0.0000       0.108834         2.9615 
  81   0.0000       0.119449         3.2504 
  82   0.0000       0.129068         3.5121 
  83   0.0000       0.134337         3.6555 
  84   0.0000       0.139847         3.8054 
  85   0.0000       0.149432         4.0663 
  86   0.0000       0.153580         4.1791 
  87   0.0000       0.157124         4.2756 
  88   0.0000       0.158510         4.3133 
  89   0.0000       0.161556         4.3962 
  90   0.0000       0.165550         4.5049 
  91   0.0000       0.166627         4.5341 
  92   0.0000       0.167328         4.5532 
  93   0.0000       0.172097         4.6830 
  94   0.0000       0.175405         4.7730 
  95   0.0000       0.184440         5.0189 
  96   0.0000       0.184741         5.0271 
  97   0.0000       0.189419         5.1544 
  98   0.0000       0.206537         5.6202 
  99   0.0000       0.213776         5.8171 
 100   0.0000       0.220943         6.0122 
 101   0.0000       0.231050         6.2872 
 102   0.0000       0.237813         6.4712 
 103   0.0000       0.246682         6.7126 
 104   0.0000       0.253940         6.9101 
 105   0.0000       0.254457         6.9241 
 106   0.0000       0.256823         6.9885 
 107   0.0000       0.270979         7.3737 
 108   0.0000       0.281732         7.6663 
 109   0.0000       0.288391         7.8475 
 110   0.0000       0.304856         8.2956 
 111   0.0000       0.311454         8.4751 
 112   0.0000       0.328455         8.9377 
 113   0.0000       0.333724         9.0811 
 114   0.0000       0.334999         9.1158 
 115   0.0000       0.354914         9.6577 
 116   0.0000       0.386704        10.5227 
 117   0.0000       0.428991        11.6734 
 118   0.0000       0.482335        13.1250 
 119   0.0000       0.492902        13.4125 
 120   0.0000       0.494381        13.4528 
 121   0.0000       0.504497        13.7281 
 122   0.0000       0.514975        14.0132 
 123   0.0000       0.527663        14.3584 
 124   0.0000       0.535971        14.5845 
 125   0.0000       0.540349        14.7037 
 126   0.0000       0.544738        14.8231 
 127   0.0000       0.550811        14.9883 
 128   0.0000       0.557477        15.1697 
 129   0.0000       0.559102        15.2139 
 130   0.0000       0.560530        15.2528 
 131   0.0000       0.563926        15.3452 
 132   0.0000       0.573483        15.6053 
 133   0.0000       0.576051        15.6752 
 134   0.0000       0.593034        16.1373 
 135   0.0000       0.595389        16.2014 
 136   0.0000       0.598629        16.2895 
 137   0.0000       0.610178        16.6038 
 138   0.0000       0.614071        16.7097 
 139   0.0000       0.621215        16.9041 
 140   0.0000       0.628633        17.1060 
 141   0.0000       0.636089        17.3089 
 142   0.0000       0.642085        17.4720 
 143   0.0000       0.649512        17.6741 
 144   0.0000       0.662855        18.0372 
 145   0.0000       0.671658        18.2768 
 146   0.0000       0.676679        18.4134 
 147   0.0000       0.684461        18.6251 
 148   0.0000       0.699696        19.0397 
 149   0.0000       0.704748        19.1772 
 150   0.0000       0.722714        19.6661 
 151   0.0000       0.737037        20.0558 
 152   0.0000       0.755151        20.5487 
 153   0.0000       0.761759        20.7285 
 154   0.0000       0.769585        20.9415 
 155   0.0000       0.785487        21.3742 
 156   0.0000       0.795711        21.6524 
 157   0.0000       0.813440        22.1348 
 158   0.0000       0.814398        22.1609 
 159   0.0000       0.816047        22.2058 
 160   0.0000       0.816797        22.2262 
 161   0.0000       0.829118        22.5615 
 162   0.0000       0.837042        22.7771 
 163   0.0000       0.838129        22.8067 
 164   0.0000       0.840175        22.8623 
 165   0.0000       0.854514        23.2525 
 166   0.0000       0.864056        23.5122 
 167   0.0000       0.864801        23.5324 
 168   0.0000       0.873438        23.7674 
 169   0.0000       0.877428        23.8760 
 170   0.0000       0.879817        23.9410 
 171   0.0000       0.889239        24.1974 
 172   0.0000       0.900509        24.5041 
 173   0.0000       0.906910        24.6783 
 174   0.0000       0.915951        24.9243 
 175   0.0000       0.919276        25.0148 
 176   0.0000       0.929752        25.2998 
 177   0.0000       0.935018        25.4431 
 178   0.0000       0.940745        25.5990 
 179   0.0000       0.947905        25.7938 
 180   0.0000       0.953369        25.9425 
 181   0.0000       0.966152        26.2903 
 182   0.0000       0.973105        26.4795 
 183   0.0000       0.983681        26.7673 
 184   0.0000       0.988270        26.8922 
 185   0.0000       0.998755        27.1775 
 186   0.0000       1.006731        27.3945 
 187   0.0000       1.014185        27.5974 
 188   0.0000       1.017712        27.6933 
 189   0.0000       1.036515        28.2050 
 190   0.0000       1.040898        28.3243 
 191   0.0000       1.055196        28.7133 
 192   0.0000       1.080362        29.3981 
 193   0.0000       1.089827        29.6557 
 194   0.0000       1.100331        29.9415 
 195   0.0000       1.121334        30.5131 
 196   0.0000       1.138079        30.9687 
 197   0.0000       1.162217        31.6255 
 198   0.0000       1.169708        31.8294 
 199   0.0000       1.182444        32.1759 
 200   0.0000       1.200373        32.6638 
 201   0.0000       1.224336        33.3159 
 202   0.0000       1.237138        33.6642 
 203   0.0000       1.272697        34.6318 
 204   0.0000       1.289998        35.1026 
 205   0.0000       1.306223        35.5441 
 206   0.0000       1.310709        35.6662 
 207   0.0000       1.331231        36.2246 
 208   0.0000       1.339073        36.4380 
 209   0.0000       1.371998        37.3340 
 210   0.0000       1.387615        37.7589 
 211   0.0000       1.394912        37.9575 
 212   0.0000       1.406108        38.2621 
 213   0.0000       1.413943        38.4753 
 214   0.0000       1.417426        38.5701 
 215   0.0000       1.430121        38.9156 
 216   0.0000       1.452626        39.5280 
 217   0.0000       1.469810        39.9956 
 218   0.0000       1.488172        40.4952 
 219   0.0000       1.496341        40.7175 
 220   0.0000       1.513987        41.1977 
 221   0.0000       1.519878        41.3580 
 222   0.0000       1.526870        41.5482 
 223   0.0000       1.578732        42.9595 
 224   0.0000       1.587104        43.1873 
 225   0.0000       1.653408        44.9915 
 226   0.0000       1.671810        45.4923 
 227   0.0000       1.688340        45.9421 
 228   0.0000       1.737562        47.2815 
 229   0.0000       1.749929        47.6180 
 230   0.0000       1.753690        47.7203 
 231   0.0000       1.762094        47.9490 
 232   0.0000       1.765057        48.0297 
 233   0.0000       1.768813        48.1318 
 234   0.0000       1.773084        48.2481 
 235   0.0000       1.782521        48.5049 
 236   0.0000       1.795273        48.8519 
 237   0.0000       1.821378        49.5622 
 238   0.0000       1.824760        49.6542 
 239   0.0000       1.834324        49.9145 
 240   0.0000       1.841400        50.1070 
 241   0.0000       1.852004        50.3956 
 242   0.0000       1.865371        50.7593 
 243   0.0000       1.880722        51.1770 
 244   0.0000       1.894074        51.5404 
 245   0.0000       1.904343        51.8198 
 246   0.0000       1.918308        52.1998 
 247   0.0000       1.925881        52.4059 
 248   0.0000       1.934318        52.6355 
 249   0.0000       1.939837        52.7857 
 250   0.0000       1.950554        53.0773 
 251   0.0000       1.962238        53.3952 
 252   0.0000       1.968585        53.5679 
 253   0.0000       1.976468        53.7824 
 254   0.0000       1.987097        54.0717 
 255   0.0000       1.988265        54.1035 
 256   0.0000       2.012270        54.7567 
 257   0.0000       2.024016        55.0763 
 258   0.0000       2.036602        55.4187 
 259   0.0000       2.039420        55.4954 
 260   0.0000       2.063848        56.1602 
 261   0.0000       2.074609        56.4530 
 262   0.0000       2.079104        56.5753 
 263   0.0000       2.086177        56.7678 
 264   0.0000       2.097870        57.0859 
 265   0.0000       2.117872        57.6302 
 266   0.0000       2.148295        58.4581 
 267   0.0000       2.151875        58.5555 
 268   0.0000       2.157443        58.7070 
 269   0.0000       2.168533        59.0088 
 270   0.0000       2.184098        59.4323 
 271   0.0000       2.204998        60.0010 
 272   0.0000       2.218407        60.3659 
 273   0.0000       2.225383        60.5558 
 274   0.0000       2.241299        60.9888 
 275   0.0000       2.257270        61.4234 
 276   0.0000       2.259839        61.4933 
 277   0.0000       2.269403        61.7536 
 278   0.0000       2.304166        62.6996 
 279   0.0000       2.317570        63.0643 
 280   0.0000       2.323934        63.2375 
 281   0.0000       2.334782        63.5326 
 282   0.0000       2.350390        63.9574 
 283   0.0000       2.366471        64.3949 
 284   0.0000       2.388713        65.0002 
 285   0.0000       2.402672        65.3800 
 286   0.0000       2.438151        66.3455 
 287   0.0000       2.457361        66.8682 
 288   0.0000       2.473366        67.3037 
 289   0.0000       2.505610        68.1811 
 290   0.0000       2.508189        68.2513 
 291   0.0000       2.517383        68.5015 
 292   0.0000       2.524774        68.7026 
 293   0.0000       2.553180        69.4756 
 294   0.0000       2.557418        69.5909 
 295   0.0000       2.568957        69.9049 
 296   0.0000       2.588186        70.4281 
 297   0.0000       2.596448        70.6529 
 298   0.0000       2.625185        71.4349 
 299   0.0000       2.626413        71.4683 
 300   0.0000       2.634976        71.7013 
 301   0.0000       2.680784        72.9478 
 302   0.0000       2.692224        73.2591 
 303   0.0000       2.702513        73.5391 
 304   0.0000       2.738587        74.5207 
 305   0.0000       2.741870        74.6101 
 306   0.0000       2.773791        75.4787 
 307   0.0000       2.787088        75.8405 
 308   0.0000       2.790905        75.9444 
 309   0.0000       2.813431        76.5573 
 310   0.0000       2.863527        77.9205 
 311   0.0000       2.879173        78.3463 
 312   0.0000       2.899495        78.8993 
 313   0.0000       2.930168        79.7339 
 314   0.0000       2.954020        80.3830 
 315   0.0000       3.014120        82.0184 
 316   0.0000       3.039249        82.7022 
 317   0.0000       3.179274        86.5124 
 318   0.0000       3.318969        90.3137 
 319   0.0000       3.432772        93.4105 

                    ********************************
                    * MULLIKEN POPULATION ANALYSIS *
                    ********************************

-----------------------
MULLIKEN ATOMIC CHARGES
-----------------------
   0 C :   -0.298934
   1 N :   -0.357134
   2 C :   -0.119866
   3 C :   -0.298012
   4 C :   -0.060885
   5 C :   -0.283512
   6 C :   -0.153633
   7 N :   -0.481724
   8 C :    0.488653
   9 O :   -0.457680
  10 C :    0.066091
  11 C :   -0.171791
  12 C :   -0.126726
  13 C :   -0.126867
  14 C :   -0.171822
  15 C :    0.066140
  16 C :    0.487844
  17 O :   -0.458087
  18 C :   -0.279943
  19 C :   -0.140126
  20 H :    0.144236
  21 H :    0.116316
  22 H :    0.144938
  23 H :    0.138105
  24 H :    0.109044
  25 H :    0.145438
  26 H :    0.142787
  27 H :    0.120277
  28 H :    0.150037
  29 H :    0.150367
  30 H :    0.175675
  31 H :    0.176988
  32 H :    0.166223
  33 H :    0.149220
  34 H :    0.149214
  35 H :    0.166115
  36 H :    0.133839
  37 H :    0.133891
  38 H :    0.132873
  39 H :    0.132433
Sum of atomic charges:    0.0000000

--------------------------------
MULLIKEN REDUCED ORBITAL CHARGES
--------------------------------
  0 C s       :     3.265440  s :     3.265440
      pz      :     0.911489  p :     2.984228
      px      :     1.036933
      py      :     1.035806
      dz2     :     0.012078  d :     0.049266
      dxz     :     0.014671
      dyz     :     0.007062
      dx2y2   :     0.009199
      dxy     :     0.006255
  1 N s       :     3.595644  s :     3.595644
      pz      :     1.330613  p :     3.724666
      px      :     1.376661
      py      :     1.017392
      dz2     :     0.008028  d :     0.036824
      dxz     :     0.004700
      dyz     :     0.008408
      dx2y2   :     0.007477
      dxy     :     0.008211
  2 C s       :     3.210294  s :     3.210294
      pz      :     0.980737  p :     2.855480
      px      :     0.900044
      py      :     0.974699
      dz2     :     0.005805  d :     0.054092
      dxz     :     0.014660
[...]
      pz      :     0.954807  p :     2.925213
      px      :     0.961750
      py      :     1.008656
      dz2     :     0.004329  d :     0.036442
      dxz     :     0.005473
      dyz     :     0.003781
      dx2y2   :     0.012802
      dxy     :     0.010057
 15 C s       :     3.175311  s :     3.175311
      pz      :     0.984445  p :     2.746879
      px      :     0.882318
      py      :     0.880116
      dz2     :     0.003565  d :     0.039745
      dxz     :     0.005483
      dyz     :     0.006792
      dx2y2   :     0.014227
      dxy     :     0.009679
 16 C s       :     2.979640  s :     2.979640
      pz      :     0.817477  p :     2.411231
      px      :     0.864753
      py      :     0.729001
      dz2     :     0.008686  d :     0.110010
      dxz     :     0.009761
      dyz     :     0.022814
      dx2y2   :     0.037102
      dxy     :     0.031647
 17 O s       :     3.857445  s :     3.857445
      pz      :     1.414843  p :     4.537857
      px      :     1.657799
      py      :     1.465216
      dz2     :     0.003412  d :     0.028055
      dxz     :     0.002093
      dyz     :     0.008136
      dx2y2   :     0.006963
      dxy     :     0.007451
 18 C s       :     3.251496  s :     3.251496
      pz      :     1.000179  p :     2.991514
      px      :     0.950469
      py      :     1.040866
      dz2     :     0.007860  d :     0.039531
      dxz     :     0.008481
      dyz     :     0.008017
      dx2y2   :     0.011104
      dxy     :     0.004069
 19 C s       :     3.209076  s :     3.209076
      pz      :     1.047794  p :     2.874518
      px      :     0.978993
      py      :     0.847731
      dz2     :     0.006907  d :     0.054297
      dxz     :     0.009390
      dyz     :     0.014020
      dx2y2   :     0.013633
      dxy     :     0.010347
 20 H s       :     0.854796  s :     0.854796
 21 H s       :     0.887249  s :     0.887249
 22 H s       :     0.854512  s :     0.854512
 23 H s       :     0.863479  s :     0.863479
 24 H s       :     0.893081  s :     0.893081
 25 H s       :     0.853993  s :     0.853993
 26 H s       :     0.853824  s :     0.853824
 27 H s       :     0.878000  s :     0.878000
 28 H s       :     0.849651  s :     0.849651
 29 H s       :     0.852387  s :     0.852387
 30 H s       :     0.829784  s :     0.829784
 31 H s       :     0.826348  s :     0.826348
 32 H s       :     0.836992  s :     0.836992
 33 H s       :     0.854616  s :     0.854616
 34 H s       :     0.854641  s :     0.854641
 35 H s       :     0.837015  s :     0.837015
 36 H s       :     0.863341  s :     0.863341
 37 H s       :     0.865210  s :     0.865210
 38 H s       :     0.868265  s :     0.868265
 39 H s       :     0.866464  s :     0.866464


                     *******************************
                     * LOEWDIN POPULATION ANALYSIS *
                     *******************************

----------------------
LOEWDIN ATOMIC CHARGES
----------------------
   0 C :   -0.277848
   1 N :   -0.188350
   2 C :   -0.157240
   3 C :   -0.238185
   4 C :   -0.122315
   5 C :   -0.233782
   6 C :   -0.155535
   7 N :   -0.058303
   8 C :    0.128865
   9 O :   -0.214699
  10 C :   -0.041819
  11 C :   -0.100914
  12 C :   -0.111693
  13 C :   -0.111704
  14 C :   -0.100898
  15 C :   -0.041935
  16 C :    0.128780
  17 O :   -0.215162
  18 C :   -0.239962
  19 C :   -0.158605
  20 H :    0.122346
  21 H :    0.092223
  22 H :    0.121257
  23 H :    0.119457
  24 H :    0.091487
  25 H :    0.127851
  26 H :    0.126689
  27 H :    0.117082
  28 H :    0.128533
  29 H :    0.125767
  30 H :    0.140840
  31 H :    0.140531
  32 H :    0.149982
  33 H :    0.139507
  34 H :    0.139506
  35 H :    0.149977
  36 H :    0.119683
  37 H :    0.124729
  38 H :    0.121451
  39 H :    0.112405

-------------------------------
LOEWDIN REDUCED ORBITAL CHARGES
-------------------------------
  0 C s       :     2.968357  s :     2.968357
      pz      :     1.030832  p :     3.208591
      px      :     1.080496
      py      :     1.097264
      dz2     :     0.030356  d :     0.100900
      dxz     :     0.024629
      dyz     :     0.014456
      dx2y2   :     0.015598
      dxy     :     0.015860
  1 N s       :     3.152970  s :     3.152970
      pz      :     1.474581  p :     3.944414
      px      :     1.345759
      py      :     1.124073
      dz2     :     0.015627  d :     0.090966
      dxz     :     0.012131
      dyz     :     0.018404
      dx2y2   :     0.022268
      dxy     :     0.022536
  2 C s       :     2.926752  s :     2.926752
      pz      :     1.077207  p :     3.114563
      px      :     0.985233
      py      :     1.052123
      dz2     :     0.013000  d :     0.115926
      dxz     :     0.031321
      dyz     :     0.023368
      dx2y2   :     0.021288
      dxy     :     0.026949
  3 C s       :     2.940073  s :     2.940073
      pz      :     1.076456  p :     3.217192
      px      :     1.081066
      py      :     1.059671
      dz2     :     0.010923  d :     0.080920
      dxz     :     0.021000
      dyz     :     0.018460
      dx2y2   :     0.008660
      dxy     :     0.021878
  4 C s       :     2.903942  s :     2.903942
      pz      :     1.053377  p :     3.121871
      px      :     1.015177
      py      :     1.053316
      dz2     :     0.011473  d :     0.096502
      dxz     :     0.020852
      dyz     :     0.027387
      dx2y2   :     0.023616
      dxy     :     0.013174
  5 C s       :     2.942831  s :     2.942831
      pz      :     1.069168  p :     3.207832
      px      :     1.025933
      py      :     1.112731
      dz2     :     0.007094  d :     0.083119
      dxz     :     0.021967
      dyz     :     0.024082
      dx2y2   :     0.021814
      dxy     :     0.008162
  6 C s       :     2.920846  s :     2.920846
      pz      :     1.084878  p :     3.122001
      px      :     0.906909
      py      :     1.130214
      dz2     :     0.012518  d :     0.112688
      dxz     :     0.031024
      dyz     :     0.024480
      dx2y2   :     0.034804
      dxy     :     0.009861
  7 N s       :     3.101137  s :     3.101137
      pz      :     1.477992  p :     3.860909
      px      :     1.205597
      py      :     1.177320
      dz2     :     0.009228  d :     0.096257
      dxz     :     0.012987
      dyz     :     0.012744
      dx2y2   :     0.025602
      dxy     :     0.035695
  8 C s       :     2.839159  s :     2.839159
      pz      :     0.829611  p :     2.769872
      px      :     0.955085
      py      :     0.985176
      dz2     :     0.018491  d :     0.262104
      dxz     :     0.013159
      dyz     :     0.058140
      dx2y2   :     0.062744
      dxy     :     0.109569
  9 O s       :     3.553677  s :     3.553677
      pz      :     1.429333  p :     4.604881
      px      :     1.710438
      py      :     1.465110
      dz2     :     0.006855  d :     0.056140
      dxz     :     0.000802
      dyz     :     0.013822
      dx2y2   :     0.019504
      dxy     :     0.015157
 10 C s       :     2.876228  s :     2.876228
      pz      :     0.988250  p :     3.063148
      px      :     1.029849
      py      :     1.045049
      dz2     :     0.008994  d :     0.102443
      dxz     :     0.012628
      dyz     :     0.014619
      dx2y2   :     0.033888
      dxy     :     0.032315
 11 C s       :     2.916372  s :     2.916372
      pz      :     0.967032  p :     3.099403
      px      :     1.047726
      py      :     1.084646
      dz2     :     0.008176  d :     0.085138
      dxz     :     0.013490
      dyz     :     0.007164
      dx2y2   :     0.031193
      dxy     :     0.025114
 12 C s       :     2.921635  s :     2.921635
      pz      :     0.977881  p :     3.106300
      px      :     1.060557
      py      :     1.067863
      dz2     :     0.005805  d :     0.083758
      dxz     :     0.007947
      dyz     :     0.013513
      dx2y2   :     0.028446
      dxy     :     0.028046
 13 C s       :     2.921641  s :     2.921641
      pz      :     0.976922  p :     3.106309
      px      :     1.058318
      py      :     1.071069
      dz2     :     0.007231  d :     0.083753
      dxz     :     0.008473
      dyz     :     0.012162
      dx2y2   :     0.024627
      dxy     :     0.031260
 14 C s       :     2.916404  s :     2.916404
      pz      :     0.966849  p :     3.099363
      px      :     1.047299
      py      :     1.085215
      dz2     :     0.008122  d :     0.085132
      dxz     :     0.013228
      dyz     :     0.007380
      dx2y2   :     0.030803
      dxy     :     0.025599
 15 C s       :     2.876230  s :     2.876230
      pz      :     0.984994  p :     3.063261
      px      :     1.022382
      py      :     1.055885
      dz2     :     0.007884  d :     0.102444
      dxz     :     0.012432
      dyz     :     0.015195
      dx2y2   :     0.039587
      dxy     :     0.027347
 16 C s       :     2.839184  s :     2.839184
      pz      :     0.836644  p :     2.769971
      px      :     0.971553
      py      :     0.961774
      dz2     :     0.019898  d :     0.262065
      dxz     :     0.021255
      dyz     :     0.049160
      dx2y2   :     0.093888
      dxy     :     0.077863
 17 O s       :     3.553651  s :     3.553651
      pz      :     1.411226  p :     4.605394
      px      :     1.667849
      py      :     1.526319
      dz2     :     0.006990  d :     0.056117
      dxz     :     0.003730
      dyz     :     0.013210
      dx2y2   :     0.015006
      dxy     :     0.017182
 18 C s       :     2.941995  s :     2.941995
      pz      :     1.071450  p :     3.214979
      px      :     1.045327
      py      :     1.098202
      dz2     :     0.016382  d :     0.082988
      dxz     :     0.019487
      dyz     :     0.015147
      dx2y2   :     0.023424
      dxy     :     0.008549
 19 C s       :     2.927820  s :     2.927820
      pz      :     1.105708  p :     3.117534
      px      :     1.059697
      py      :     0.952129
      dz2     :     0.013885  d :     0.113251
      dxz     :     0.018070
      dyz     :     0.028066
      dx2y2   :     0.031402
      dxy     :     0.021829
 20 H s       :     0.877654  s :     0.877654
 21 H s       :     0.907777  s :     0.907777
 22 H s       :     0.878743  s :     0.878743
 23 H s       :     0.880543  s :     0.880543
 24 H s       :     0.908513  s :     0.908513
 25 H s       :     0.872149  s :     0.872149
 26 H s       :     0.873311  s :     0.873311
 27 H s       :     0.882918  s :     0.882918
 28 H s       :     0.871467  s :     0.871467
 29 H s       :     0.874233  s :     0.874233
 30 H s       :     0.859160  s :     0.859160
 31 H s       :     0.859469  s :     0.859469
 32 H s       :     0.850018  s :     0.850018
 33 H s       :     0.860493  s :     0.860493
 34 H s       :     0.860494  s :     0.860494
 35 H s       :     0.850023  s :     0.850023
 36 H s       :     0.880317  s :     0.880317
 37 H s       :     0.875271  s :     0.875271
 38 H s       :     0.878549  s :     0.878549
 39 H s       :     0.887595  s :     0.887595


                      *****************************
                      * MAYER POPULATION ANALYSIS *
                      *****************************

  NA   - Mulliken gross atomic population
  ZA   - Total nuclear charge
  QA   - Mulliken gross atomic charge
  VA   - Mayer's total valence
  BVA  - Mayer's bonded valence
  FA   - Mayer's free valence

  ATOM       NA         ZA         QA         VA         BVA        FA
  0 C      6.2988     6.0000    -0.2988     3.8473     3.8473    -0.0000
  1 N      7.3552     7.0000    -0.3552     2.9751     2.9751     0.0000
  2 C      6.1203     6.0000    -0.1203     3.8720     3.8720     0.0000
  3 C      6.3014     6.0000    -0.3014     3.8669     3.8669     0.0000
  4 C      6.0648     6.0000    -0.0648     3.8868     3.8868     0.0000
  5 C      6.2786     6.0000    -0.2786     3.8540     3.8540     0.0000
  6 C      6.1527     6.0000    -0.1527     3.8096     3.8096     0.0000
  7 N      7.4885     7.0000    -0.4885     3.0291     3.0291    -0.0000
  8 C      5.5008     6.0000     0.4992     3.9297     3.9297    -0.0000
  9 O      8.4232     8.0000    -0.4232     2.1323     2.1323    -0.0000
 10 C      5.9613     6.0000     0.0387     3.9092     3.9092    -0.0000
 11 C      6.1753     6.0000    -0.1753     3.8857     3.8857    -0.0000
 12 C      6.1268     6.0000    -0.1268     3.9132     3.9132    -0.0000
 13 C      6.1268     6.0000    -0.1268     3.9133     3.9133    -0.0000
 14 C      6.1753     6.0000    -0.1753     3.8855     3.8855    -0.0000
 15 C      5.9619     6.0000     0.0381     3.9078     3.9078    -0.0000
 16 C      5.5009     6.0000     0.4991     3.9304     3.9304     0.0000
 17 O      8.4234     8.0000    -0.4234     2.1334     2.1334    -0.0000
 18 C      6.2825     6.0000    -0.2825     3.8642     3.8642    -0.0000
 19 C      6.1379     6.0000    -0.1379     3.8708     3.8708     0.0000
 20 H      0.8548     1.0000     0.1452     0.9350     0.9350    -0.0000
 21 H      0.8872     1.0000     0.1128     0.9332     0.9332     0.0000
 22 H      0.8545     1.0000     0.1455     0.9344     0.9344    -0.0000
 23 H      0.8635     1.0000     0.1365     0.9303     0.9303     0.0000
 24 H      0.8931     1.0000     0.1069     0.9320     0.9320    -0.0000
 25 H      0.8540     1.0000     0.1460     0.9352     0.9352    -0.0000
 26 H      0.8538     1.0000     0.1462     0.9309     0.9309    -0.0000
 27 H      0.8780     1.0000     0.1220     0.9325     0.9325     0.0000
 28 H      0.8497     1.0000     0.1503     0.9346     0.9346    -0.0000
 29 H      0.8524     1.0000     0.1476     0.9361     0.9361     0.0000
 30 H      0.8298     1.0000     0.1702     0.9364     0.9364    -0.0000
 31 H      0.8263     1.0000     0.1737     0.9383     0.9383    -0.0000
 32 H      0.8370     1.0000     0.1630     0.9342     0.9342    -0.0000
 33 H      0.8546     1.0000     0.1454     0.9358     0.9358    -0.0000
 34 H      0.8546     1.0000     0.1454     0.9358     0.9358    -0.0000
 35 H      0.8370     1.0000     0.1630     0.9342     0.9342     0.0000
 36 H      0.8633     1.0000     0.1367     0.9337     0.9337    -0.0000
 37 H      0.8652     1.0000     0.1348     0.9352     0.9352    -0.0000
 38 H      0.8683     1.0000     0.1317     0.9387     0.9387     0.0000
 39 H      0.8665     1.0000     0.1335     0.9258     0.9258     0.0000

  Mayer bond orders larger than 0.100000
B(  0-C ,  1-N ) :   1.0000 B(  0-C , 20-H ) :   0.9477 B(  0-C , 21-H ) :   0.9230 
B(  0-C , 22-H ) :   0.9485 B(  1-N ,  2-C ) :   0.9867 B(  1-N , 19-C ) :   0.9824 
B(  2-C ,  3-C ) :   1.0175 B(  2-C , 23-H ) :   0.9344 B(  2-C , 24-H ) :   0.9129 
B(  3-C ,  4-C ) :   0.9867 B(  3-C , 25-H ) :   0.9343 B(  3-C , 26-H ) :   0.9351 
B(  4-C ,  5-C ) :   0.9948 B(  4-C , 18-C ) :   0.9988 B(  4-C , 27-H ) :   0.9335 
B(  5-C ,  6-C ) :   0.9970 B(  5-C , 28-H ) :   0.9330 B(  5-C , 29-H ) :   0.9315 
B(  6-C ,  7-N ) :   0.9081 B(  6-C , 30-H ) :   0.9228 B(  6-C , 31-H ) :   0.9177 
B(  7-N ,  8-C ) :   0.9911 B(  7-N , 16-C ) :   0.9917 B(  8-C ,  9-O ) :   1.9213 
B(  8-C , 10-C ) :   0.9424 B( 10-C , 11-C ) :   1.4374 B( 10-C , 15-C ) :   1.3699 
B( 11-C , 12-C ) :   1.3976 B( 11-C , 32-H ) :   0.9162 B( 12-C , 13-C ) :   1.4464 
B( 12-C , 33-H ) :   0.9293 B( 13-C , 14-C ) :   1.3977 B( 13-C , 34-H ) :   0.9293 
B( 14-C , 15-C ) :   1.4373 B( 14-C , 35-H ) :   0.9162 B( 15-C , 16-C ) :   0.9411 
B( 16-C , 17-O ) :   1.9225 B( 18-C , 19-C ) :   0.9957 B( 18-C , 36-H ) :   0.9344 
B( 18-C , 37-H ) :   0.9351 B( 19-C , 38-H ) :   0.9384 B( 19-C , 39-H ) :   0.9358 


-------
TIMINGS
-------

Total SCF time: 0 days 0 hours 0 min 20 sec 

Total time                  ....      20.946 sec
Sum of individual times     ....      20.265 sec  ( 96.7%)

Fock matrix formation       ....      18.007 sec  ( 86.0%)
  Split-RI-J                ....       2.260 sec  ( 12.5% of F)
  Chain of spheres X        ....      12.527 sec  ( 69.6% of F)
  XC integration            ....       2.792 sec  ( 15.5% of F)
    Basis function eval.    ....       0.459 sec  ( 16.4% of XC)
    Density eval.           ....       0.285 sec  ( 10.2% of XC)
    XC-Functional eval.     ....       0.084 sec  (  3.0% of XC)
    XC-Potential eval.      ....       0.154 sec  (  5.5% of XC)
Diagonalization             ....       0.021 sec  (  0.1%)
Density matrix formation    ....       0.171 sec  (  0.8%)
Population analysis         ....       0.041 sec  (  0.2%)
Initial guess               ....       0.029 sec  (  0.1%)
Orbital Transformation      ....       0.000 sec  (  0.0%)
Orbital Orthonormalization  ....       0.020 sec  (  0.1%)
DIIS solution               ....       0.012 sec  (  0.1%)
SOSCF solution              ....       0.267 sec  (  1.3%)
Grid generation             ....       1.717 sec  (  8.2%)

Maximum memory used throughout the entire SCF-calculation: 75.6 MB

-------------------------   --------------------
FINAL SINGLE POINT ENERGY      -881.170350333346
-------------------------   --------------------

                                *** OPTIMIZATION RUN DONE ***

                            ***************************************
                            *     ORCA property calculations      *
                            ***************************************

                                    ---------------------
                                    Active property flags
                                    ---------------------
   (+) Dipole Moment


------------------------------------------------------------------------------
                       ORCA ELECTRIC PROPERTIES CALCULATION
------------------------------------------------------------------------------

Dipole Moment Calculation                       ... on
Quadrupole Moment Calculation                   ... off
Polarizability Calculation                      ... off
GBWName                                         ... compound_medoid_10/compound_medoid_10.gbw
Electron density                                ... compound_medoid_10/compound_medoid_10.scfp
The origin for moment calculation is the CENTER OF MASS  = ( 1.517498, -0.096621 -0.265139)

-------------
DIPOLE MOMENT
-------------
                                X             Y             Z
Electronic contribution:     33.48072      -1.89075      -3.39064
Nuclear contribution   :    -32.55553       1.95947       3.92236
                        -----------------------------------------
Total Dipole Moment    :      0.92519       0.06871       0.53172
                        -----------------------------------------
Magnitude (a.u.)       :      1.06931
Magnitude (Debye)      :      2.71797



--------------------
Rotational spectrum 
--------------------
 
Rotational constants in cm-1:     0.030618     0.004384     0.004101 
Rotational constants in MHz :   917.904760   131.416676   122.954034 

 Dipole components along the rotational axes: 
x,y,z [a.u.] :    -0.928933     0.079818     0.523578 
x,y,z [Debye]:    -2.361161     0.202882     1.330830 

 

======================   ALLOCATED NODES   ======================
	gpua091: flags=0x11 slots=1 max_slots=0 slots_inuse=0 state=UP
=================================================================

Timings for individual modules:

Sum of individual times         ...      328.357 sec (=   5.473 min)
GTO integral calculation        ...       37.743 sec (=   0.629 min)  11.5 %
SCF iterations                  ...      225.032 sec (=   3.751 min)  68.5 %
SCF Gradient evaluation         ...       64.783 sec (=   1.080 min)  19.7 %
Geometry relaxation             ...        0.799 sec (=   0.013 min)   0.2 %
                             ****ORCA TERMINATED NORMALLY****
TOTAL RUN TIME: 0 days 0 hours 5 minutes 54 seconds 821 msec
