
                                 *****************
                                 * O   R   C   A *
                                 *****************

                                            #,                                       
                                            ###                                      
                                            ####                                     
                                            #####                                    
                                            ######                                   
                                           ########,                                 
                                     ,,################,,,,,                         
                               ,,#################################,,                 
                          ,,##########################################,,             
                       ,#########################################, ''#####,          
                    ,#############################################,,   '####,        
                  ,##################################################,,,,####,       
                ,###########''''           ''''###############################       
              ,#####''   ,,,,##########,,,,          '''####'''          '####       
            ,##' ,,,,###########################,,,                        '##       
           ' ,,###''''                  '''############,,,                           
         ,,##''                                '''############,,,,        ,,,,,,###''
      ,#''                                            '''#######################'''  
     '                                                          ''''####''''         
             ,#######,   #######,   ,#######,      ##                                
            ,#'     '#,  ##    ##  ,#'     '#,    #''#        ######   ,####,        
            ##       ##  ##   ,#'  ##            #'  '#       #        #'  '#        
            ##       ##  #######   ##           ,######,      #####,   #    #        
            '#,     ,#'  ##    ##  '#,     ,#' ,#      #,         ##   #,  ,#        
             '#######'   ##     ##  '#######'  #'      '#     #####' # '####'        



                  #######################################################
                  #                        -***-                        #
                  #          Department of theory and spectroscopy      #
                  #    Directorship and core code : Frank Neese         #
                  #        Max Planck Institute fuer Kohlenforschung    #
                  #                Kaiser Wilhelm Platz 1               #
                  #                 D-45470 Muelheim/Ruhr               #
                  #                      Germany                        #
                  #                                                     #
                  #                  All rights reserved                #
                  #                        -***-                        #
                  #######################################################


                         Program Version 5.0.1 -  RELEASE  -


 With contributions from (in alphabetic order):
   Daniel Aravena         : Magnetic Suceptibility
   Michael Atanasov       : Ab Initio Ligand Field Theory (pilot matlab implementation)
   Alexander A. Auer      : GIAO ZORA, VPT2 properties, NMR spectrum
   Ute Becker             : Parallelization
   Giovanni Bistoni       : ED, misc. LED, open-shell LED, HFLD
   Martin Brehm           : Molecular dynamics
   Dmytro Bykov           : SCF Hessian
   Vijay G. Chilkuri      : MRCI spin determinant printing, contributions to CSF-ICE
   Dipayan Datta          : RHF DLPNO-CCSD density
   Achintya Kumar Dutta   : EOM-CC, STEOM-CC
   Dmitry Ganyushin       : Spin-Orbit,Spin-Spin,Magnetic field MRCI
   Miquel Garcia          : C-PCM and meta-GGA Hessian, CC/C-PCM, Gaussian charge scheme
   Yang Guo               : DLPNO-NEVPT2, F12-NEVPT2, CIM, IAO-localization
   Andreas Hansen         : Spin unrestricted coupled pair/coupled cluster methods
   Benjamin Helmich-Paris : MC-RPA, TRAH-SCF, COSX integrals
   Lee Huntington         : MR-EOM, pCC
   Robert Izsak           : Overlap fitted RIJCOSX, COSX-SCS-MP3, EOM
   Marcus Kettner         : VPT2
   Christian Kollmar      : KDIIS, OOCD, Brueckner-CCSD(T), CCSD density, CASPT2, CASPT2-K
   Simone Kossmann        : Meta GGA functionals, TD-DFT gradient, OOMP2, MP2 Hessian
   Martin Krupicka        : Initial AUTO-CI
   Lucas Lang             : DCDCAS
   Marvin Lechner         : AUTO-CI (C++ implementation), FIC-MRCC
   Dagmar Lenk            : GEPOL surface, SMD
   Dimitrios Liakos       : Extrapolation schemes; Compound Job, initial MDCI parallelization
   Dimitrios Manganas     : Further ROCIS development; embedding schemes
   Dimitrios Pantazis     : SARC Basis sets
   Anastasios Papadopoulos: AUTO-CI, single reference methods and gradients
   Taras Petrenko         : DFT Hessian,TD-DFT gradient, ASA, ECA, R-Raman, ABS, FL, XAS/XES, NRVS
   Peter Pinski           : DLPNO-MP2, DLPNO-MP2 Gradient
   Christoph Reimann      : Effective Core Potentials
   Marius Retegan         : Local ZFS, SOC
   Christoph Riplinger    : Optimizer, TS searches, QM/MM, DLPNO-CCSD(T), (RO)-DLPNO pert. Triples
   Tobias Risthaus        : Range-separated hybrids, TD-DFT gradient, RPA, STAB
   Michael Roemelt        : Original ROCIS implementation
   Masaaki Saitow         : Open-shell DLPNO-CCSD energy and density
   Barbara Sandhoefer     : DKH picture change effects
   Avijit Sen             : IP-ROCIS
   Kantharuban Sivalingam : CASSCF convergence, NEVPT2, FIC-MRCI
   Bernardo de Souza      : ESD, SOC TD-DFT
   Georgi Stoychev        : AutoAux, RI-MP2 NMR, DLPNO-MP2 response
   Willem Van den Heuvel  : Paramagnetic NMR
   Boris Wezisla          : Elementary symmetry handling
   Frank Wennmohs         : Technical directorship


 We gratefully acknowledge several colleagues who have allowed us to
 interface, adapt or use parts of their codes:
   Stefan Grimme, W. Hujo, H. Kruse, P. Pracht,  : VdW corrections, initial TS optimization,
                  C. Bannwarth, S. Ehlert          DFT functionals, gCP, sTDA/sTD-DF
   Ed Valeev, F. Pavosevic, A. Kumar             : LibInt (2-el integral package), F12 methods
   Garnet Chan, S. Sharma, J. Yang, R. Olivares  : DMRG
   Ulf Ekstrom                                   : XCFun DFT Library
   Mihaly Kallay                                 : mrcc  (arbitrary order and MRCC methods)
   Jiri Pittner, Ondrej Demel                    : Mk-CCSD
   Frank Weinhold                                : gennbo (NPA and NBO analysis)
   Christopher J. Cramer and Donald G. Truhlar   : smd solvation model
   Lars Goerigk                                  : TD-DFT with DH, B97 family of functionals
   V. Asgeirsson, H. Jonsson                     : NEB implementation
   FAccTs GmbH                                   : IRC, NEB, NEB-TS, DLPNO-Multilevel, CI-OPT
                                                   MM, QMMM, 2- and 3-layer-ONIOM, Crystal-QMMM,
                                                   LR-CPCM, SF, NACMEs, symmetry and pop. for TD-DFT,
                                                   nearIR, NL-DFT gradient (VV10), updates on ESD,
                                                   ML-optimized integration grids
   S Lehtola, MJT Oliveira, MAL Marques          : LibXC Library
   Liviu Ungur et al                             : ANISO software


 Your calculation uses the libint2 library for the computation of 2-el integrals
 For citations please refer to: http://libint.valeyev.net

 Your ORCA version has been built with support for libXC version: 5.1.0
 For citations please refer to: https://tddft.org/programs/libxc/

 This ORCA versions uses:
   CBLAS   interface :  Fast vector & matrix operations
   LAPACKE interface :  Fast linear algebra routines
   SCALAPACK package :  Parallel linear algebra routines
   Shared memory     :  Shared parallel matrices
   BLAS/LAPACK       :  OpenBLAS 0.3.15  USE64BITINT DYNAMIC_ARCH NO_AFFINITY Zen SINGLE_THREADED
        Core in use  :  Zen
   Copyright (c) 2011-2014, The OpenBLAS Project


================================================================================

----- Orbital basis set information -----
Your calculation utilizes the basis: 6-31G(d)
   H-He, Li-Ne : W. J. Hehre, R. Ditchfield and J.A. Pople, J. Chem. Phys. 56, 2257 (1972).
                 Note: He and Ne are unpublished basis sets taken from the Gaussian program.
                 Note: Li and B from J. D. Dill and J. A. Pople, J. Chem. Phys. 62, 2921 (1975).
   Na - Ar     : M. M. Francl, W. J. Pietro, W. J. Hehre, J. S. Binkley, M. S. Gordon, 
                 D. J. DeFrees and J. A. Pople, J. Chem. Phys. 77, 3654 (1982).
   K - Zn      : V. A. Rassolov, J. A. Pople, M. A. Ratner, and T. L. Windus, J. Chem. Phys. 109, 1223 (1998).

----- AuxJ basis set information -----
Your calculation utilizes the auxiliary basis: def2/J
   F. Weigend, Phys. Chem. Chem. Phys. 8, 1057 (2006).

================================================================================
                                        WARNINGS
                       Please study these warnings very carefully!
================================================================================


WARNING: Geometry Optimization
  ===> : Switching off AutoStart
         For restart on a previous wavefunction, please use MOREAD

INFO   : the flag for use of the SHARK integral package has been found!

================================================================================
                                       INPUT FILE
================================================================================
NAME = compound_medoid_5/compound_medoid_5.inp
|  1> ! B3LYP 6-31G(d) Opt TightSCF
|  2> %pal
|  3>    nprocs 16
|  4> end
|  5> 
|  6> * xyz 0 1
|  7> O   -3.037358   2.127536  -2.145631
|  8> C   -3.636529   1.510872  -1.222868
|  9> C   -5.107931   1.745462  -1.035123
| 10> C   -5.807199   0.607940  -0.334067
| 11> C   -7.208810   0.534212  -0.396424
| 12> C   -7.897692  -0.464374   0.295061
| 13> C   -7.196445  -1.390921   1.066862
| 14> C   -5.804028  -1.322231   1.149766
| 15> C   -5.097996  -0.323278   0.454152
| 16> C   -3.623432  -0.257002   0.521859
| 17> O   -2.995910  -1.018247   1.309156
| 18> N   -2.902584   0.655907  -0.326130
| 19> C   -1.433645   0.618654  -0.375503
| 20> C   -0.967378  -0.450778  -1.379917
| 21> C    0.567360  -0.580392  -1.537587
| 22> C    1.239003  -1.200256  -0.290533
| 23> C    2.754213  -0.959737  -0.323518
| 24> N    3.113160   0.486017  -0.334160
| 25> C    3.596907   0.948352   0.982860
| 26> C    4.999045   0.456623   1.231182
| 27> C    5.268481  -0.445958   2.274035
| 28> C    6.572653  -0.901864   2.490692
| 29> C    7.614697  -0.460699   1.670407
| 30> C    7.354456   0.437318   0.631637
| 31> C    6.051855   0.895526   0.411325
| 32> C    2.037832   1.378181  -0.831602
| 33> C    1.255176   0.735649  -1.983422
| 34> H   -5.574730   1.906163  -2.031706
| 35> H   -5.243580   2.670571  -0.435969
| 36> H   -7.769232   1.256052  -0.977990
| 37> H   -8.977329  -0.515638   0.237608
| 38> H   -7.732679  -2.162920   1.603573
| 39> H   -5.280558  -2.052927   1.753577
| 40> H   -1.034460   0.411479   0.637781
| 41> H   -1.045748   1.618136  -0.662492
| 42> H   -1.402836  -0.213643  -2.375329
| 43> H   -1.379818  -1.437402  -1.074838
| 44> H    0.721007  -1.308156  -2.366932
| 45> H    0.843057  -0.766121   0.649468
| 46> H    1.037546  -2.293406  -0.264277
| 47> H    3.169896  -1.428816  -1.241294
| 48> H    3.217811  -1.498751   0.531951
| 49> H    2.901773   0.621663   1.789750
| 50> H    3.629471   2.061030   1.018779
| 51> H    4.471039  -0.799053   2.915974
| 52> H    6.775358  -1.597995   3.294303
| 53> H    8.623376  -0.814859   1.839450
| 54> H    8.162036   0.778023  -0.003337
| 55> H    5.861728   1.590131  -0.397720
| 56> H    1.329865   1.641776  -0.013447
| 57> H    2.494538   2.322351  -1.199678
| 58> H    1.973277   0.513981  -2.803994
| 59> H    0.521293   1.461009  -2.395721
| 60> *
| 61> 
| 62>                          ****END OF INPUT****
================================================================================

                       *****************************
                       * Geometry Optimization Run *
                       *****************************

Geometry optimization settings:
Update method            Update   .... BFGS
Choice of coordinates    CoordSys .... Z-matrix Internals
Initial Hessian          InHess   .... Almoef's Model

Convergence Tolerances:
Energy Change            TolE     ....  5.0000e-06 Eh
Max. Gradient            TolMAXG  ....  3.0000e-04 Eh/bohr
RMS Gradient             TolRMSG  ....  1.0000e-04 Eh/bohr
Max. Displacement        TolMAXD  ....  4.0000e-03 bohr
RMS Displacement         TolRMSD  ....  2.0000e-03 bohr
Strict Convergence                ....  False
------------------------------------------------------------------------------
                        ORCA OPTIMIZATION COORDINATE SETUP
------------------------------------------------------------------------------

The optimization will be done in new redundant internal coordinates
Making redundant internal coordinates   ...  (new redundants) done
Evaluating the initial hessian          ...  (Almloef) done
Evaluating the coordinates              ...  done
Calculating the B-matrix                .... done
Calculating the G-matrix                .... done
Diagonalizing the G-matrix              .... done
Small eigenvalue found = 1.341e-03
Small eigenvalue found = 1.957e-03
Small eigenvalue found = 6.198e-03
Small eigenvalue found = 1.014e-02
Small eigenvalue found = 1.079e-02
Small eigenvalue found = 1.414e-02
The first mode is                       ....  161
The number of degrees of freedom        ....  153

    -----------------------------------------------------------------
                    Redundant Internal Coordinates


    -----------------------------------------------------------------
         Definition                    Initial Value    Approx d2E/dq
    -----------------------------------------------------------------
      1. B(C   1,O   0)                  1.2613         0.897997   
      2. B(C   2,C   1)                  1.5018         0.414401   
      3. B(C   3,C   2)                  1.5081         0.404849   
      4. B(C   4,C   3)                  1.4049         0.591444   
      5. B(C   5,C   4)                  1.3964         0.610317   
      6. B(C   6,C   5)                  1.3950         0.613515   
      7. B(C   7,C   6)                  1.3966         0.609890   
      8. B(C   8,C   7)                  1.4072         0.586497   
      9. B(C   8,C   3)                  1.4112         0.578029   
     10. B(C   9,C   8)                  1.4776         0.452867   
     11. B(O  10,C   9)                  1.2622         0.894940   
     12. B(N  11,C   9)                  1.4395         0.466583   
     13. B(N  11,C   1)                  1.4401         0.465591   
     14. B(C  12,N  11)                  1.4702         0.416732   
     15. B(C  13,C  12)                  1.5395         0.360815   
     16. B(C  14,C  13)                  1.5483         0.349349   
     17. B(C  15,C  14)                  1.5461         0.352098   
     18. B(C  16,C  15)                  1.5345         0.367402   
     19. B(N  17,C  16)                  1.4897         0.388003   
     20. B(C  18,N  17)                  1.4773         0.406118   
     21. B(C  19,C  18)                  1.5065         0.407303   
     22. B(C  20,C  19)                  1.4053         0.590707   
     23. B(C  21,C  20)                  1.3984         0.605705   
     24. B(C  22,C  21)                  1.3976         0.607543   
     25. B(C  23,C  22)                  1.3976         0.607660   
     26. B(C  24,C  23)                  1.3983         0.606019   
     27. B(C  24,C  19)                  1.4047         0.591929   
     28. B(C  25,N  17)                  1.4832         0.397429   
     29. B(C  26,C  25)                  1.5337         0.368597   
     30. B(C  26,C  14)                  1.5504         0.346567   
     31. B(H  27,C   2)                  1.1122         0.331944   
     32. B(H  28,C   2)                  1.1105         0.333976   
     33. B(H  29,C   4)                  1.0832         0.369195   
     34. B(H  30,C   5)                  1.0824         0.370324   
     35. B(H  31,C   6)                  1.0824         0.370297   
     36. B(H  32,C   7)                  1.0828         0.369708   
     37. B(H  33,C  12)                  1.1086         0.336305   
     38. B(H  34,C  12)                  1.1099         0.334762   
     39. B(H  35,C  13)                  1.1121         0.332055   
     40. B(H  36,C  13)                  1.1120         0.332107   
     41. B(H  37,C  14)                  1.1140         0.329675   
     42. B(H  38,C  15)                  1.1085         0.336398   
     43. B(H  39,C  15)                  1.1119         0.332302   
     44. B(H  40,C  16)                  1.1114         0.332913   
     45. B(H  41,C  16)                  1.1123         0.331735   
     46. B(H  42,C  18)                  1.1140         0.329704   
     47. B(H  43,C  18)                  1.1137         0.330033   
     48. B(H  44,C  20)                  1.0829         0.369614   
     49. B(H  45,C  21)                  1.0823         0.370366   
     50. B(H  46,C  22)                  1.0823         0.370391   
     51. B(H  47,C  23)                  1.0823         0.370379   
     52. B(H  48,C  24)                  1.0831         0.369299   
     53. B(H  49,C  25)                  1.1136         0.330210   
     54. B(H  50,C  25)                  1.1115         0.332706   
     55. B(H  51,C  26)                  1.1127         0.331265   
     56. B(H  52,C  26)                  1.1112         0.333143   
     57. A(C   2,C   1,N  11)          120.9473         0.381791   
     58. A(O   0,C   1,C   2)          118.7208         0.428723   
     59. A(O   0,C   1,N  11)          120.2480         0.434928   
     60. A(C   1,C   2,H  27)          108.7708         0.325510   
     61. A(C   3,C   2,H  27)          109.3247         0.324265   
     62. A(C   3,C   2,H  28)          108.7175         0.324590   
     63. A(C   1,C   2,H  28)          108.4975         0.325836   
     64. A(C   1,C   2,C   3)          113.2401         0.375026   
     65. A(H  27,C   2,H  28)          108.1692         0.283805   
     66. A(C   2,C   3,C   8)          121.6249         0.397402   
     67. A(C   4,C   3,C   8)          119.4414         0.425029   
     68. A(C   2,C   3,C   4)          118.7850         0.399008   
     69. A(C   3,C   4,H  29)          120.3318         0.351586   
     70. A(C   5,C   4,H  29)          119.1555         0.353459   
     71. A(C   3,C   4,C   5)          120.5118         0.429189   
     72. A(C   4,C   5,C   6)          120.0646         0.432022   
     73. A(C   4,C   5,H  30)          119.9780         0.353642   
     74. A(C   6,C   5,H  30)          119.9561         0.353955   
     75. A(C   5,C   6,H  31)          119.9362         0.353951   
     76. A(C   5,C   6,C   7)          120.0913         0.431967   
     77. A(C   7,C   6,H  31)          119.9724         0.353596   
     78. A(C   6,C   7,H  32)          118.8096         0.353500   
     79. A(C   6,C   7,C   8)          120.3844         0.428489   
     80. A(C   8,C   7,H  32)          120.8053         0.351169   
     81. A(C   7,C   8,C   9)          120.6557         0.406369   
     82. A(C   3,C   8,C   9)          119.8362         0.405326   
     83. A(C   3,C   8,C   7)          119.4982         0.424391   
     84. A(C   8,C   9,N  11)          120.0788         0.387877   
     85. A(C   8,C   9,O  10)          119.8465         0.435350   
     86. A(O  10,C   9,N  11)          120.0645         0.434828   
     87. A(C   1,N  11,C  12)          120.2214         0.379751   
     88. A(C   1,N  11,C   9)          119.2177         0.387282   
     89. A(C   9,N  11,C  12)          120.2676         0.379891   
     90. A(C  13,C  12,H  34)          110.5501         0.318651   
     91. A(N  11,C  12,H  34)          109.5760         0.324311   
     92. A(C  13,C  12,H  33)          110.9446         0.318890   
     93. A(N  11,C  12,H  33)          109.4996         0.324556   
     94. A(H  33,C  12,H  34)          106.1881         0.284485   
     95. A(N  11,C  12,C  13)          110.0061         0.365725   
     96. A(C  12,C  13,H  36)          108.9663         0.318238   
     97. A(C  14,C  13,H  35)          108.3520         0.316560   
     98. A(C  12,C  13,H  35)          108.4980         0.318230   
     99. A(C  12,C  13,C  14)          115.1401         0.357102   
    100. A(C  14,C  13,H  36)          108.7425         0.316568   
    101. A(H  35,C  13,H  36)          106.8295         0.283573   
    102. A(C  13,C  14,C  15)          112.4600         0.355622   
    103. A(C  15,C  14,C  26)          112.3044         0.355140   
    104. A(C  13,C  14,C  26)          113.4521         0.354669   
    105. A(C  26,C  14,H  37)          106.2158         0.315779   
    106. A(C  15,C  14,H  37)          106.1788         0.316593   
    107. A(C  13,C  14,H  37)          105.4989         0.316190   
    108. A(C  14,C  15,C  16)          110.4115         0.358680   
    109. A(C  16,C  15,H  39)          109.4821         0.319209   
    110. A(H  38,C  15,H  39)          107.4754         0.284171   
    111. A(C  14,C  15,H  39)          109.5424         0.317003   
    112. A(C  16,C  15,H  38)          108.0306         0.319848   
    113. A(C  14,C  15,H  38)          111.8251         0.317635   
    114. A(H  40,C  16,H  41)          105.9437         0.283637   
    115. A(N  17,C  16,H  40)          108.2765         0.320247   
    116. A(C  15,C  16,N  17)          112.9663         0.362405   
    117. A(N  17,C  16,H  41)          112.0464         0.320062   
    118. A(C  15,C  16,H  41)          108.6053         0.319120   
    119. A(C  15,C  16,H  40)          108.7182         0.319305   
    120. A(C  16,N  17,C  18)          112.1030         0.366374   
    121. A(C  18,N  17,C  25)          110.3756         0.367885   
    122. A(C  16,N  17,C  25)          114.2985         0.365020   
    123. A(N  17,C  18,C  19)          110.4618         0.371765   
    124. A(H  42,C  18,H  43)          106.7301         0.282984   
    125. A(C  19,C  18,H  43)          107.0719         0.324279   
    126. A(N  17,C  18,H  43)          110.5484         0.322189   
    127. A(C  19,C  18,H  42)          111.4484         0.324226   
    128. A(N  17,C  18,H  42)          110.4648         0.322136   
    129. A(C  18,C  19,C  20)          120.6923         0.399345   
    130. A(C  20,C  19,C  24)          119.3476         0.426746   
    131. A(C  18,C  19,C  24)          119.9593         0.399490   
    132. A(C  19,C  20,C  21)          120.2098         0.428509   
    133. A(C  21,C  20,H  44)          119.2493         0.353073   
    134. A(C  19,C  20,H  44)          120.5406         0.351579   
    135. A(C  20,C  21,C  22)          120.0983         0.430676   
    136. A(C  22,C  21,H  45)          119.9438         0.353376   
    137. A(C  20,C  21,H  45)          119.9579         0.353195   
    138. A(C  21,C  22,C  23)          120.0149         0.430925   
    139. A(C  23,C  22,H  46)          119.9922         0.353392   
    140. A(C  21,C  22,H  46)          119.9929         0.353380   
    141. A(C  24,C  23,H  47)          119.9662         0.353228   
    142. A(C  22,C  23,H  47)          119.9590         0.353390   
    143. A(C  22,C  23,C  24)          120.0747         0.430731   
    144. A(C  23,C  24,H  48)          119.4294         0.353053   
    145. A(C  19,C  24,H  48)          120.3159         0.351651   
    146. A(C  19,C  24,C  23)          120.2546         0.428708   
    147. A(H  49,C  25,H  50)          107.6644         0.283406   
    148. A(C  26,C  25,H  50)          108.4728         0.319441   
    149. A(N  17,C  25,H  50)          108.9124         0.321474   
    150. A(C  26,C  25,H  49)          109.0574         0.319049   
    151. A(N  17,C  25,H  49)          110.9107         0.321079   
    152. A(N  17,C  25,C  26)          111.7079         0.364096   
    153. A(H  51,C  26,H  52)          106.4181         0.283605   
    154. A(C  25,C  26,H  52)          110.0124         0.319510   
    155. A(C  14,C  26,H  52)          111.5799         0.316317   
    156. A(C  25,C  26,H  51)          107.9368         0.319215   
    157. A(C  14,C  26,H  51)          109.2239         0.316026   
    158. A(C  14,C  26,C  25)          111.4722         0.357913   
    159. D(H  28,C   2,C   1,N  11)     94.0693         0.012709   
    160. D(C   3,C   2,C   1,O   0)    156.5994         0.012709   
    161. D(H  27,C   2,C   1,N  11)   -148.4804         0.012709   
    162. D(C   3,C   2,C   1,N  11)    -26.7232         0.012709   
    163. D(H  27,C   2,C   1,O   0)     34.8422         0.012709   
    164. D(H  28,C   2,C   1,O   0)    -82.6081         0.012709   
    165. D(C   8,C   3,C   2,H  28)   -100.1041         0.012151   
    166. D(C   4,C   3,C   2,C   1)   -163.8953         0.012151   
    167. D(C   8,C   3,C   2,C   1)     20.5637         0.012151   
    168. D(C   4,C   3,C   2,H  27)    -42.4490         0.012151   
    169. D(C   8,C   3,C   2,H  27)    142.0100         0.012151   
    170. D(C   4,C   3,C   2,H  28)     75.4369         0.012151   
    171. D(C   5,C   4,C   3,C   8)     -1.1126         0.024079   
    172. D(C   5,C   4,C   3,C   2)   -176.7529         0.024079   
    173. D(H  29,C   4,C   3,C   8)    178.5379         0.024079   
    174. D(H  29,C   4,C   3,C   2)      2.8976         0.024079   
    175. D(H  30,C   5,C   4,H  29)      0.6026         0.025727   
    176. D(C   6,C   5,C   4,H  29)   -178.9859         0.025727   
    177. D(C   6,C   5,C   4,C   3)      0.6687         0.025727   
    178. D(H  30,C   5,C   4,C   3)   -179.7428         0.025727   
    179. D(H  31,C   6,C   5,H  30)      0.2909         0.026013   
    180. D(H  31,C   6,C   5,C   4)    179.8795         0.026013   
    181. D(C   7,C   6,C   5,H  30)   -179.5952         0.026013   
    182. D(C   7,C   6,C   5,C   4)     -0.0067         0.026013   
    183. D(H  32,C   7,C   6,H  31)      0.2089         0.025689   
    184. D(H  32,C   7,C   6,C   5)   -179.9050         0.025689   
    185. D(C   8,C   7,C   6,C   5)     -0.2000         0.025689   
    186. D(C   8,C   7,C   6,H  31)    179.9139         0.025689   
    187. D(C   7,C   8,C   3,C   4)      0.8975         0.022948   
    188. D(C   7,C   8,C   3,C   2)    176.4099         0.022948   
    189. D(C   9,C   8,C   3,C   2)     -4.7236         0.022948   
    190. D(C   9,C   8,C   3,C   4)    179.7640         0.022948   
    191. D(C   9,C   8,C   7,H  32)      0.5927         0.023658   
    192. D(C   9,C   8,C   7,C   6)   -179.1064         0.023658   
    193. D(C   3,C   8,C   7,C   6)     -0.2494         0.023658   
    194. D(C   3,C   8,C   7,H  32)    179.4497         0.023658   
    195. D(N  11,C   9,C   8,C   7)    171.9666         0.013977   
    196. D(O  10,C   9,C   8,C   3)    174.2759         0.013977   
    197. D(O  10,C   9,C   8,C   7)     -6.8709         0.013977   
    198. D(N  11,C   9,C   8,C   3)     -6.8866         0.013977   
    199. D(C  12,N  11,C   9,O  10)      5.8603         0.017156   
    200. D(C   1,N  11,C   9,O  10)    179.6550         0.017156   
    201. D(C   1,N  11,C   9,C   8)      0.8200         0.017156   
    202. D(C  12,N  11,C   1,C   2)   -169.3145         0.017082   
    203. D(C  12,N  11,C   1,O   0)      7.3123         0.017082   
    204. D(C  12,N  11,C   9,C   8)   -172.9747         0.017156   
    205. D(C   9,N  11,C   1,C   2)     16.8879         0.017082   
    206. D(C   9,N  11,C   1,O   0)   -166.4852         0.017082   
    207. D(H  34,C  12,N  11,C   9)   -153.7099         0.014810   
    208. D(H  34,C  12,N  11,C   1)     32.5580         0.014810   
    209. D(H  33,C  12,N  11,C   9)    -37.6172         0.014810   
    210. D(C  13,C  12,N  11,C   9)     84.5570         0.014810   
    211. D(H  33,C  12,N  11,C   1)    148.6507         0.014810   
    212. D(C  13,C  12,N  11,C   1)    -89.1750         0.014810   
    213. D(H  36,C  13,C  12,H  33)     63.1299         0.010441   
    214. D(H  36,C  13,C  12,N  11)    -58.1839         0.010441   
    215. D(H  35,C  13,C  12,H  34)    -63.3714         0.010441   
    216. D(H  35,C  13,C  12,H  33)    179.0936         0.010441   
    217. D(H  35,C  13,C  12,N  11)     57.7797         0.010441   
    218. D(C  14,C  13,C  12,H  34)     58.2129         0.010441   
    219. D(C  14,C  13,C  12,H  33)    -59.3221         0.010441   
    220. D(H  36,C  13,C  12,H  34)   -179.3351         0.010441   
    221. D(C  14,C  13,C  12,N  11)    179.3640         0.010441   
    222. D(H  37,C  14,C  13,H  36)     63.2962         0.009836   
    223. D(H  37,C  14,C  13,C  12)   -174.1318         0.009836   
    224. D(C  26,C  14,C  13,H  36)    179.1571         0.009836   
    225. D(C  26,C  14,C  13,H  35)     63.3923         0.009836   
    226. D(C  15,C  14,C  13,H  36)    -52.0140         0.009836   
    227. D(C  15,C  14,C  13,H  35)   -167.7788         0.009836   
    228. D(H  37,C  14,C  13,H  35)    -52.4685         0.009836   
    229. D(C  15,C  14,C  13,C  12)     70.5579         0.009836   
    230. D(C  26,C  14,C  13,C  12)    -58.2710         0.009836   
    231. D(H  39,C  15,C  14,H  37)    -40.0410         0.009979   
    232. D(H  39,C  15,C  14,C  26)   -155.7181         0.009979   
    233. D(H  39,C  15,C  14,C  13)     74.8576         0.009979   
    234. D(H  38,C  15,C  14,H  37)   -159.0801         0.009979   
    235. D(H  38,C  15,C  14,C  13)    -44.1815         0.009979   
    236. D(C  16,C  15,C  14,H  37)     80.6025         0.009979   
    237. D(C  16,C  15,C  14,C  26)    -35.0747         0.009979   
    238. D(C  16,C  15,C  14,C  13)   -164.4989         0.009979   
    239. D(H  38,C  15,C  14,C  26)     85.2428         0.009979   
    240. D(H  41,C  16,C  15,H  39)    -53.9761         0.010800   
    241. D(H  41,C  16,C  15,H  38)     62.7765         0.010800   
    242. D(H  41,C  16,C  15,C  14)   -174.6556         0.010800   
    243. D(H  40,C  16,C  15,H  39)     60.8643         0.010800   
    244. D(H  40,C  16,C  15,H  38)    177.6169         0.010800   
    245. D(H  40,C  16,C  15,C  14)    -59.8152         0.010800   
    246. D(N  17,C  16,C  15,H  39)   -178.9229         0.010800   
    247. D(N  17,C  16,C  15,H  38)    -62.1702         0.010800   
    248. D(N  17,C  16,C  15,C  14)     60.3976         0.010800   
    249. D(C  25,N  17,C  16,H  41)   -145.6149         0.012873   
    250. D(C  25,N  17,C  16,H  40)     97.9071         0.012873   
    251. D(C  25,N  17,C  16,C  15)    -22.5582         0.012873   
    252. D(C  18,N  17,C  16,H  41)    -19.0543         0.012873   
    253. D(C  18,N  17,C  16,H  40)   -135.5323         0.012873   
    254. D(C  18,N  17,C  16,C  15)    104.0024         0.012873   
    255. D(H  43,C  18,N  17,C  25)    -38.0584         0.014074   
    256. D(H  43,C  18,N  17,C  16)   -166.7120         0.014074   
    257. D(H  42,C  18,N  17,C  25)     79.8474         0.014074   
    258. D(H  42,C  18,N  17,C  16)    -48.8063         0.014074   
    259. D(C  19,C  18,N  17,C  25)   -156.3850         0.014074   
    260. D(C  19,C  18,N  17,C  16)     74.9613         0.014074   
    261. D(C  24,C  19,C  18,H  43)    -56.1064         0.012293   
    262. D(C  24,C  19,C  18,H  42)   -172.4779         0.012293   
    263. D(C  24,C  19,C  18,N  17)     64.3241         0.012293   
    264. D(C  20,C  19,C  18,H  43)    124.2200         0.012293   
    265. D(C  20,C  19,C  18,H  42)      7.8484         0.012293   
    266. D(C  20,C  19,C  18,N  17)   -115.3496         0.012293   
    267. D(H  44,C  20,C  19,C  24)   -179.8266         0.024016   
    268. D(H  44,C  20,C  19,C  18)     -0.1510         0.024016   
    269. D(C  21,C  20,C  19,C  24)     -0.0448         0.024016   
    270. D(C  21,C  20,C  19,C  18)    179.6309         0.024016   
    271. D(H  45,C  21,C  20,H  44)     -0.1371         0.025318   
    272. D(H  45,C  21,C  20,C  19)   -179.9218         0.025318   
    273. D(C  22,C  21,C  20,H  44)    179.8155         0.025318   
    274. D(C  22,C  21,C  20,C  19)      0.0308         0.025318   
    275. D(H  46,C  22,C  21,H  45)     -0.0307         0.025481   
    276. D(H  46,C  22,C  21,C  20)   -179.9834         0.025481   
    277. D(C  23,C  22,C  21,H  45)    179.9479         0.025481   
    278. D(C  23,C  22,C  21,C  20)     -0.0047         0.025481   
    279. D(H  47,C  23,C  22,H  46)      0.0064         0.025491   
    280. D(H  47,C  23,C  22,C  21)   -179.9722         0.025491   
    281. D(C  24,C  23,C  22,H  46)    179.9716         0.025491   
    282. D(C  24,C  23,C  22,C  21)     -0.0070         0.025491   
    283. D(H  48,C  24,C  19,C  18)      0.2481         0.024120   
    284. D(C  23,C  24,C  19,C  20)      0.0331         0.024120   
    285. D(C  23,C  24,C  19,C  18)   -179.6450         0.024120   
    286. D(H  48,C  24,C  23,H  47)      0.0638         0.025346   
    287. D(H  48,C  24,C  23,C  22)   -179.9014         0.025346   
    288. D(C  19,C  24,C  23,H  47)    179.9579         0.025346   
    289. D(C  19,C  24,C  23,C  22)     -0.0073         0.025346   
    290. D(H  48,C  24,C  19,C  20)    179.9262         0.024120   
    291. D(H  50,C  25,N  17,C  18)     75.7684         0.013489   
    292. D(H  50,C  25,N  17,C  16)   -156.7803         0.013489   
    293. D(H  49,C  25,N  17,C  18)    -42.5440         0.013489   
    294. D(H  49,C  25,N  17,C  16)     84.9073         0.013489   
    295. D(C  26,C  25,N  17,C  18)   -164.4364         0.013489   
    296. D(C  26,C  25,N  17,C  16)    -36.9850         0.013489   
    297. D(H  52,C  26,C  25,H  50)    -54.7440         0.010866   
    298. D(H  52,C  26,C  25,N  17)   -174.7977         0.010866   
    299. D(H  51,C  26,C  25,H  50)     60.9822         0.010866   
    300. D(H  51,C  26,C  25,H  49)    177.9750         0.010866   
    301. D(C  14,C  26,C  25,H  50)   -179.0694         0.010866   
    302. D(C  14,C  26,C  25,H  49)    -62.0765         0.010866   
    303. D(C  14,C  26,C  25,N  17)     60.8769         0.010866   
    304. D(H  52,C  26,C  14,H  37)     98.9296         0.009693   
    305. D(H  52,C  26,C  14,C  15)   -145.4156         0.009693   
    306. D(H  52,C  26,C  14,C  13)    -16.5072         0.009693   
    307. D(H  51,C  26,C  14,H  37)    -18.4458         0.009693   
    308. D(H  51,C  26,C  25,N  17)    -59.0715         0.010866   
    309. D(H  51,C  26,C  14,C  15)     97.2090         0.009693   
    310. D(H  51,C  26,C  14,C  13)   -133.8826         0.009693   
    311. D(C  25,C  26,C  14,H  37)   -137.6316         0.009693   
    312. D(H  52,C  26,C  25,H  49)     62.2488         0.010866   
    313. D(C  25,C  26,C  14,C  15)    -21.9768         0.009693   
    314. D(C  25,C  26,C  14,C  13)    106.9317         0.009693   
    -----------------------------------------------------------------

Number of atoms                         .... 53
Number of degrees of freedom            .... 314

         *************************************************************
         *                GEOMETRY OPTIMIZATION CYCLE   1            *
         *************************************************************
---------------------------------
CARTESIAN COORDINATES (ANGSTROEM)
---------------------------------
  O     -3.037358    2.127536   -2.145631
  C     -3.636529    1.510872   -1.222868
  C     -5.107931    1.745462   -1.035123
  C     -5.807199    0.607940   -0.334067
  C     -7.208810    0.534212   -0.396424
  C     -7.897692   -0.464374    0.295061
  C     -7.196445   -1.390921    1.066862
  C     -5.804028   -1.322231    1.149766
  C     -5.097996   -0.323278    0.454152
  C     -3.623432   -0.257002    0.521859
  O     -2.995910   -1.018247    1.309156
  N     -2.902584    0.655907   -0.326130
  C     -1.433645    0.618654   -0.375503
  C     -0.967378   -0.450778   -1.379917
  C      0.567360   -0.580392   -1.537587
  C      1.239003   -1.200256   -0.290533
  C      2.754213   -0.959737   -0.323518
  N      3.113160    0.486017   -0.334160
  C      3.596907    0.948352    0.982860
  C      4.999045    0.456623    1.231182
  C      5.268481   -0.445958    2.274035
  C      6.572653   -0.901864    2.490692
  C      7.614697   -0.460699    1.670407
  C      7.354456    0.437318    0.631637
  C      6.051855    0.895526    0.411325
  C      2.037832    1.378181   -0.831602
  C      1.255176    0.735649   -1.983422
  H     -5.574730    1.906163   -2.031706
  H     -5.243580    2.670571   -0.435969
  H     -7.769232    1.256052   -0.977990
  H     -8.977329   -0.515638    0.237608
  H     -7.732679   -2.162920    1.603573
  H     -5.280558   -2.052927    1.753577
  H     -1.034460    0.411479    0.637781
  H     -1.045748    1.618136   -0.662492
  H     -1.402836   -0.213643   -2.375329
  H     -1.379818   -1.437402   -1.074838
  H      0.721007   -1.308156   -2.366932
  H      0.843057   -0.766121    0.649468
  H      1.037546   -2.293406   -0.264277
  H      3.169896   -1.428816   -1.241294
  H      3.217811   -1.498751    0.531951
  H      2.901773    0.621663    1.789750
  H      3.629471    2.061030    1.018779
  H      4.471039   -0.799053    2.915974
  H      6.775358   -1.597995    3.294303
  H      8.623376   -0.814859    1.839450
  H      8.162036    0.778023   -0.003337
  H      5.861728    1.590131   -0.397720
  H      1.329865    1.641776   -0.013447
  H      2.494538    2.322351   -1.199678
  H      1.973277    0.513981   -2.803994
  H      0.521293    1.461009   -2.395721

----------------------------
CARTESIAN COORDINATES (A.U.)
----------------------------
  NO LB      ZA    FRAG     MASS         X           Y           Z
   0 O     8.0000    0    15.999   -5.739775    4.020460   -4.054655
   1 C     6.0000    0    12.011   -6.872044    2.855134   -2.310886
   2 C     6.0000    0    12.011   -9.652591    3.298445   -1.956099
   3 C     6.0000    0    12.011  -10.974016    1.148840   -0.631295
   4 C     6.0000    0    12.011  -13.622677    1.009514   -0.749133
   5 C     6.0000    0    12.011  -14.924475   -0.877540    0.557584
   6 C     6.0000    0    12.011  -13.599310   -2.628460    2.016077
   7 C     6.0000    0    12.011  -10.968023   -2.498654    2.172743
   8 C     6.0000    0    12.011   -9.633816   -0.610907    0.858223
   9 C     6.0000    0    12.011   -6.847294   -0.485663    0.986171
  10 O     8.0000    0    15.999   -5.661449   -1.924208    2.473946
  11 N     7.0000    0    14.007   -5.485089    1.239485   -0.616296
  12 C     6.0000    0    12.011   -2.709196    1.169087   -0.709598
  13 C     6.0000    0    12.011   -1.828079   -0.851847   -2.607665
  14 C     6.0000    0    12.011    1.072155   -1.096782   -2.905618
  15 C     6.0000    0    12.011    2.341376   -2.268155   -0.549028
  16 C     6.0000    0    12.011    5.204708   -1.813640   -0.611360
  17 N     7.0000    0    14.007    5.883020    0.918439   -0.631471
  18 C     6.0000    0    12.011    6.797169    1.792126    1.857336
  19 C     6.0000    0    12.011    9.446826    0.862892    2.326597
  20 C     6.0000    0    12.011    9.955986   -0.842738    4.297303
  21 C     6.0000    0    12.011   12.420514   -1.704276    4.706726
  22 C     6.0000    0    12.011   14.389692   -0.870595    3.156612
  23 C     6.0000    0    12.011   13.897908    0.826411    1.193621
  24 C     6.0000    0    12.011   11.436349    1.692299    0.777292
  25 C     6.0000    0    12.011    3.850944    2.604385   -1.571500
  26 C     6.0000    0    12.011    2.371939    1.390175   -3.748124
  27 H     1.0000    0     1.008  -10.534713    3.602126   -3.839368
  28 H     1.0000    0     1.008   -9.908930    5.046648   -0.823862
  29 H     1.0000    0     1.008  -14.681721    2.373594   -1.848133
  30 H     1.0000    0     1.008  -16.964693   -0.974415    0.449014
  31 H     1.0000    0     1.008  -14.612646   -4.087326    3.030314
  32 H     1.0000    0     1.008   -9.978808   -3.879470    3.313780
  33 H     1.0000    0     1.008   -1.954846    0.777583    1.205231
  34 H     1.0000    0     1.008   -1.976177    3.057834   -1.251928
  35 H     1.0000    0     1.008   -2.650976   -0.403727   -4.488721
  36 H     1.0000    0     1.008   -2.607478   -2.716296   -2.031149
  37 H     1.0000    0     1.008    1.362506   -2.472057   -4.472853
  38 H     1.0000    0     1.008    1.593147   -1.447759    1.227317
  39 H     1.0000    0     1.008    1.960678   -4.333909   -0.499411
  40 H     1.0000    0     1.008    5.990235   -2.700071   -2.345706
  41 H     1.0000    0     1.008    6.080782   -2.832229    1.005242
  42 H     1.0000    0     1.008    5.483556    1.174773    3.382137
  43 H     1.0000    0     1.008    6.858706    3.894782    1.925213
  44 H     1.0000    0     1.008    8.449039   -1.509991    5.510392
  45 H     1.0000    0     1.008   12.803571   -3.019773    6.225330
  46 H     1.0000    0     1.008   16.295819   -1.539860    3.476057
  47 H     1.0000    0     1.008   15.424013    1.470250   -0.006306
  48 H     1.0000    0     1.008   11.077061    3.004912   -0.751582
  49 H     1.0000    0     1.008    2.513081    3.102507   -0.025411
  50 H     1.0000    0     1.008    4.713994    4.388607   -2.267063
  51 H     1.0000    0     1.008    3.728953    0.971283   -5.298781
  52 H     1.0000    0     1.008    0.985101    2.760907   -4.527257

--------------------------------
INTERNAL COORDINATES (ANGSTROEM)
--------------------------------
 O      0   0   0     0.000000000000     0.00000000     0.00000000
 C      1   0   0     1.261258074426     0.00000000     0.00000000
 C      2   1   0     1.501767125332   118.72080999     0.00000000
 C      3   2   1     1.508115231487   113.24014236   156.59940384
 C      4   3   2     1.404933311141   118.78496894   196.10473463
 C      5   4   3     1.396382438498   120.51180866   183.24709716
 C      6   5   4     1.394960028753   120.06456718     0.66871192
 C      7   6   5     1.396573124188   120.09130176     0.00000000
 C      8   7   6     1.407219641076   120.38442655   359.80003198
 C      9   8   7     1.477604729324   120.65574780   180.89362654
 O     10   9   8     1.262186347858   119.84645713   353.12906795
 N     10   9   8     1.439482554777   120.07880609   171.96660784
 C     12  10   9     1.470240546597   120.26758016   187.02533869
 C     13  12  10     1.539460035632   110.00613913    84.55704287
 C     14  13  12     1.548250737620   115.14009941   179.36399325
 C     15  14  13     1.546117517157   112.46003223    70.55793464
 C     16  15  14     1.534535351071   110.41145999   195.50108316
 N     17  16  15     1.489684808773   112.96627385    60.39762593
 C     18  17  16     1.477263176497   112.10298171   104.00237751
 C     19  18  17     1.506470111276   110.46184163    74.96131055
 C     20  19  18     1.405272428843   120.69229585   244.65041942
 C     21  20  19     1.398447404113   120.20977634   179.63087718
 C     22  21  20     1.397622887758   120.09832483     0.03083162
 C     23  22  21     1.397570400112   120.01491648     0.00000000
 C     24  23  22     1.398306587916   120.07472151     0.00000000
 C     18  17  16     1.483150516247   114.29848744   337.44178472
 C     26  18  17     1.533651556828   111.70792494   323.01497977
 H      3   2   1     1.112161765972   108.77078099    34.84224792
 H      3   2   1     1.110501161097   108.49747264   277.39188805
 H      5   4   3     1.083210420943   120.33179457     2.89759024
 H      6   5   4     1.082379275797   119.97804644   180.25715176
 H      7   6   5     1.082399212988   119.93618532   179.87946080
 H      8   7   6     1.082832031775   118.80957240   180.09503761
 H     13  12  10     1.108609313287   109.49955882   322.38278442
 H     13  12  10     1.109860818776   109.57598286   206.29006220
 H     14  13  12     1.112070918482   108.49803424    57.77974799
 H     14  13  12     1.112028267274   108.96626501   301.81607240
 H     15  14  13     1.114029160000   105.49887314   185.86820379
 H     16  15  14     1.108534308509   111.82508387   315.81850635
 H     16  15  14     1.111868347820   109.54241296    74.85761255
 H     17  16  15     1.111368638619   108.71819710   300.18478917
 H     17  16  15     1.112333766349   108.60534757   185.34435871
 H     19  18  17     1.114005589204   110.46478333   311.19374241
 H     19  18  17     1.113733774446   110.54835124   193.28798371
 H     21  20  19     1.082901427698   120.54055246   359.84902206
 H     22  21  20     1.082348523123   119.95790294   180.07819989
 H     23  22  21     1.082329971169   119.99286670   180.01662385
 H     24  23  22     1.082338825923   119.95902824   180.02777490
 H     25  24  23     1.083133507089   119.42935323   180.09858321
 H     26  18  17     1.113587536361   110.91066423    84.90733413
 H     26  18  17     1.111538258951   108.91244969   203.21972717
 H     27  26  18     1.112719261813   107.93679060   300.92847933
 H     27  26  18     1.111180387106   110.01241218   185.20227475

---------------------------
INTERNAL COORDINATES (A.U.)
---------------------------
 O      0   0   0     0.000000000000     0.00000000     0.00000000
 C      1   0   0     2.383432344863     0.00000000     0.00000000
 C      2   1   0     2.837928583804   118.72080999     0.00000000
 C      3   2   1     2.849924765906   113.24014236   156.59940384
 C      4   3   2     2.654939194480   118.78496894   196.10473463
 C      5   4   3     2.638780386978   120.51180866   183.24709716
 C      6   5   4     2.636092422110   120.06456718     0.66871192
 C      7   6   5     2.639140730711   120.09130176     0.00000000
 C      8   7   6     2.659259731908   120.38442655   359.80003198
 C      9   8   7     2.792268272609   120.65574780   180.89362654
 O     10   9   8     2.385186527425   119.84645713   353.12906795
 N     10   9   8     2.720227803085   120.07880609   171.96660784
 C     12  10   9     2.778351984056   120.26758016   187.02533869
 C     13  12  10     2.909157861462   110.00613913    84.55704287
 C     14  13  12     2.925769880743   115.14009941   179.36399325
 C     15  14  13     2.921738678286   112.46003223    70.55793464
 C     16  15  14     2.899851556345   110.41145999   195.50108316
 N     17  16  15     2.815096314444   112.96627385    60.39762593
 C     18  17  16     2.791622831306   112.10298171   104.00237751
 C     19  18  17     2.846815939250   110.46184163    74.96131055
 C     20  19  18     2.655580034063   120.69229585   244.65041942
 C     21  20  19     2.642682606466   120.20977634   179.63087718
 C     22  21  20     2.641124496363   120.09832483     0.03083162
 C     23  22  21     2.641025309087   120.01491648     0.00000000
 C     24  23  22     2.642416502419   120.07472151     0.00000000
 C     18  17  16     2.802748291091   114.29848744   337.44178472
 C     26  18  17     2.898181427266   111.70792494   323.01497977
 H      3   2   1     2.101681154306   108.77078099    34.84224792
 H      3   2   1     2.098543065875   108.49747264   277.39188805
 H      5   4   3     2.046971040992   120.33179457     2.89759024
 H      6   5   4     2.045400404288   119.97804644   180.25715176
 H      7   6   5     2.045438080120   119.93618532   179.87946080
 H      8   7   6     2.046255989091   118.80957240   180.09503761
 H     13  12  10     2.094967991626   109.49955882   322.38278442
 H     13  12  10     2.097332994256   109.57598286   206.29006220
 H     14  13  12     2.101509477429   108.49803424    57.77974799
 H     14  13  12     2.101428878327   108.96626501   301.81607240
 H     15  14  13     2.105210017602   105.49887314   185.86820379
 H     16  15  14     2.094826253138   111.82508387   315.81850635
 H     16  15  14     2.101126674356   109.54241296    74.85761255
 H     17  16  15     2.100182360819   108.71819710   300.18478917
 H     17  16  15     2.102006187913   108.60534757   185.34435871
 H     19  18  17     2.105165475253   110.46478333   311.19374241
 H     19  18  17     2.104651819801   110.54835124   193.28798371
 H     21  20  19     2.046387128381   120.54055246   359.84902206
 H     22  21  20     2.045342290157   119.95790294   180.07819989
 H     23  22  21     2.045307232044   119.99286670   180.01662385
 H     24  23  22     2.045323965105   119.95902824   180.02777490
 H     25  24  23     2.046825694872   119.42935323   180.09858321
 H     26  18  17     2.104375469871   110.91066423    84.90733413
 H     26  18  17     2.100502896793   108.91244969   203.21972717
 H     27  26  18     2.102734668765   107.93679060   300.92847933
 H     27  26  18     2.099826617016   110.01241218   185.20227475

---------------------
BASIS SET INFORMATION
---------------------
There are 4 groups of distinct atoms

 Group   1 Type O   : 10s4p1d contracted to 3s2p1d pattern {631/31/1}
 Group   2 Type C   : 10s4p1d contracted to 3s2p1d pattern {631/31/1}
 Group   3 Type N   : 10s4p1d contracted to 3s2p1d pattern {631/31/1}
 Group   4 Type H   : 4s contracted to 2s pattern {31}

Atom   0O    basis set group =>   1
Atom   1C    basis set group =>   2
Atom   2C    basis set group =>   2
Atom   3C    basis set group =>   2
Atom   4C    basis set group =>   2
Atom   5C    basis set group =>   2
Atom   6C    basis set group =>   2
Atom   7C    basis set group =>   2
Atom   8C    basis set group =>   2
Atom   9C    basis set group =>   2
Atom  10O    basis set group =>   1
Atom  11N    basis set group =>   3
Atom  12C    basis set group =>   2
Atom  13C    basis set group =>   2
Atom  14C    basis set group =>   2
Atom  15C    basis set group =>   2
Atom  16C    basis set group =>   2
Atom  17N    basis set group =>   3
Atom  18C    basis set group =>   2
Atom  19C    basis set group =>   2
Atom  20C    basis set group =>   2
Atom  21C    basis set group =>   2
Atom  22C    basis set group =>   2
Atom  23C    basis set group =>   2
Atom  24C    basis set group =>   2
Atom  25C    basis set group =>   2
Atom  26C    basis set group =>   2
Atom  27H    basis set group =>   4
Atom  28H    basis set group =>   4
Atom  29H    basis set group =>   4
Atom  30H    basis set group =>   4
Atom  31H    basis set group =>   4
Atom  32H    basis set group =>   4
Atom  33H    basis set group =>   4
Atom  34H    basis set group =>   4
Atom  35H    basis set group =>   4
Atom  36H    basis set group =>   4
Atom  37H    basis set group =>   4
Atom  38H    basis set group =>   4
Atom  39H    basis set group =>   4
Atom  40H    basis set group =>   4
Atom  41H    basis set group =>   4
Atom  42H    basis set group =>   4
Atom  43H    basis set group =>   4
Atom  44H    basis set group =>   4
Atom  45H    basis set group =>   4
Atom  46H    basis set group =>   4
Atom  47H    basis set group =>   4
Atom  48H    basis set group =>   4
Atom  49H    basis set group =>   4
Atom  50H    basis set group =>   4
Atom  51H    basis set group =>   4
Atom  52H    basis set group =>   4
---------------------------------
AUXILIARY/J BASIS SET INFORMATION
---------------------------------
There are 4 groups of distinct atoms

 Group   1 Type O   : 12s5p4d2f1g contracted to 6s4p3d1f1g pattern {711111/2111/211/2/1}
 Group   2 Type C   : 12s5p4d2f1g contracted to 6s4p3d1f1g pattern {711111/2111/211/2/1}
 Group   3 Type N   : 12s5p4d2f1g contracted to 6s4p3d1f1g pattern {711111/2111/211/2/1}
 Group   4 Type H   : 5s2p1d contracted to 3s1p1d pattern {311/2/1}

Atom   0O    basis set group =>   1
Atom   1C    basis set group =>   2
Atom   2C    basis set group =>   2
Atom   3C    basis set group =>   2
Atom   4C    basis set group =>   2
Atom   5C    basis set group =>   2
Atom   6C    basis set group =>   2
Atom   7C    basis set group =>   2
Atom   8C    basis set group =>   2
Atom   9C    basis set group =>   2
Atom  10O    basis set group =>   1
Atom  11N    basis set group =>   3
Atom  12C    basis set group =>   2
Atom  13C    basis set group =>   2
Atom  14C    basis set group =>   2
Atom  15C    basis set group =>   2
Atom  16C    basis set group =>   2
Atom  17N    basis set group =>   3
Atom  18C    basis set group =>   2
Atom  19C    basis set group =>   2
Atom  20C    basis set group =>   2
Atom  21C    basis set group =>   2
Atom  22C    basis set group =>   2
Atom  23C    basis set group =>   2
Atom  24C    basis set group =>   2
Atom  25C    basis set group =>   2
Atom  26C    basis set group =>   2
Atom  27H    basis set group =>   4
Atom  28H    basis set group =>   4
Atom  29H    basis set group =>   4
Atom  30H    basis set group =>   4
Atom  31H    basis set group =>   4
Atom  32H    basis set group =>   4
Atom  33H    basis set group =>   4
Atom  34H    basis set group =>   4
Atom  35H    basis set group =>   4
Atom  36H    basis set group =>   4
Atom  37H    basis set group =>   4
Atom  38H    basis set group =>   4
Atom  39H    basis set group =>   4
Atom  40H    basis set group =>   4
Atom  41H    basis set group =>   4
Atom  42H    basis set group =>   4
Atom  43H    basis set group =>   4
Atom  44H    basis set group =>   4
Atom  45H    basis set group =>   4
Atom  46H    basis set group =>   4
Atom  47H    basis set group =>   4
Atom  48H    basis set group =>   4
Atom  49H    basis set group =>   4
Atom  50H    basis set group =>   4
Atom  51H    basis set group =>   4
Atom  52H    basis set group =>   4

======================   ALLOCATED NODES   ======================
	gpua068: flags=0x11 slots=1 max_slots=0 slots_inuse=0 state=UP
=================================================================


           ************************************************************
           *        Program running with 16 parallel MPI-processes    *
           *              working on a common directory               *
           ************************************************************
------------------------------------------------------------------------------
                           ORCA GTO INTEGRAL CALCULATION
                           -- RI-GTO INTEGRALS CHOSEN --
------------------------------------------------------------------------------
------------------------------------------------------------------------------
                   ___                                                        
                  /   \      - P O W E R E D   B Y -                         
                 /     \                                                     
                 |  |  |   _    _      __       _____    __    __             
                 |  |  |  | |  | |    /  \     |  _  \  |  |  /  |          
                  \  \/   | |  | |   /    \    | | | |  |  | /  /          
                 / \  \   | |__| |  /  /\  \   | |_| |  |  |/  /          
                |  |  |   |  __  | /  /__\  \  |    /   |      \           
                |  |  |   | |  | | |   __   |  |    \   |  |\   \          
                \     /   | |  | | |  |  |  |  | |\  \  |  | \   \       
                 \___/    |_|  |_| |__|  |__|  |_| \__\ |__|  \__/        
                                                                              
                      - O R C A' S   B I G   F R I E N D -                    
                                      &                                       
                       - I N T E G R A L  F E E D E R -                       
                                                                              
 v1 FN, 2020, v2 2021                                                         
------------------------------------------------------------------------------


Reading SHARK input file compound_medoid_5/compound_medoid_5.SHARKINP.tmp ... ok
----------------------
SHARK INTEGRAL PACKAGE
----------------------

Number of atoms                             ...     53
Number of basis functions                   ...    430
Number of shells                            ...    214
Maximum angular momentum                    ...      2
Integral batch strategy                     ... SHARK/LIBINT Hybrid
RI-J (if used) integral strategy            ... SPLIT-RIJ (Revised 2003 algorithm where possible)
Printlevel                                  ...      1
Contraction scheme used                     ... SEGMENTED contraction
Coulomb Range Separation                    ... NOT USED
Exchange Range Separation                   ... NOT USED
Finite Nucleus Model                        ... NOT USED
Auxiliary Coulomb fitting basis             ... AVAILABLE
   # of basis functions in Aux-J            ...   1609
   # of shells in Aux-J                     ...    535
   Maximum angular momentum in Aux-J        ...      4
Auxiliary J/K fitting basis                 ... NOT available
Auxiliary Correlation fitting basis         ... NOT available
Auxiliary 'external' fitting basis          ... NOT available
Integral threshold                          ...     2.500000e-11
Primitive cut-off                           ...     2.500000e-12
Primitive pair pre-selection threshold      ...     2.500000e-12

Calculating pre-screening integrals         ... done (  0.1 sec) Dimension = 214
Organizing shell pair data                  ... done (  0.1 sec)
Shell pair information
Total number of shell pairs                 ...     23005
Shell pairs after pre-screening             ...     13270
Total number of primitive shell pairs       ...    130440
Primitive shell pairs kept                  ...     41372
          la=0 lb=0:   4974 shell pairs
          la=1 lb=0:   4456 shell pairs
          la=1 lb=1:   1007 shell pairs
          la=2 lb=0:   1817 shell pairs
          la=2 lb=1:    841 shell pairs
          la=2 lb=2:    175 shell pairs

Calculating one electron integrals          ... done (  0.0 sec)
Calculating RI/J V-Matrix + Cholesky decomp.... done (  0.6 sec)
Calculating Nuclear repulsion               ... done (  0.0 sec) ENN=   2282.484626367175 Eh

SHARK setup successfully completed in   1.0 seconds

Maximum memory used throughout the entire GTOINT-calculation: 26.5 MB

======================   ALLOCATED NODES   ======================
	gpua068: flags=0x11 slots=1 max_slots=0 slots_inuse=0 state=UP
=================================================================


           ************************************************************
           *        Program running with 16 parallel MPI-processes    *
           *              working on a common directory               *
           ************************************************************
-------------------------------------------------------------------------------
                                 ORCA SCF
-------------------------------------------------------------------------------

------------
SCF SETTINGS
------------
Hamiltonian:
 Density Functional     Method          .... DFT(GTOs)
 Exchange Functional    Exchange        .... B88
   X-Alpha parameter    XAlpha          ....  0.666667
   Becke's b parameter  XBeta           ....  0.004200
 Correlation Functional Correlation     .... LYP
 LDA part of GGA corr.  LDAOpt          .... VWN-5
 Gradients option       PostSCFGGA      .... off
 Hybrid DFT is turned on
   Fraction HF Exchange ScalHFX         ....  0.200000
   Scaling of DF-GGA-X  ScalDFX         ....  0.720000
   Scaling of DF-GGA-C  ScalDFC         ....  0.810000
   Scaling of DF-LDA-C  ScalLDAC        ....  1.000000
   Perturbative correction              ....  0.000000
   Density functional embedding theory  .... OFF
   NL short-range parameter             ....  4.800000
 RI-approximation to the Coulomb term is turned on
   Number of AuxJ basis functions       .... 1609
   RIJ-COSX (HFX calculated with COS-X)).... on


General Settings:
 Integral files         IntName         .... compound_medoid_5/compound_medoid_5
 Hartree-Fock type      HFTyp           .... RHF
 Total Charge           Charge          ....    0
 Multiplicity           Mult            ....    1
 Number of Electrons    NEL             ....  194
 Basis Dimension        Dim             ....  430
 Nuclear Repulsion      ENuc            ....   2282.4846263672 Eh

Convergence Acceleration:
 DIIS                   CNVDIIS         .... on
   Start iteration      DIISMaxIt       ....    12
   Startup error        DIISStart       ....  0.200000
   # of expansion vecs  DIISMaxEq       ....     5
   Bias factor          DIISBfac        ....   1.050
   Max. coefficient     DIISMaxC        ....  10.000
 Trust-Rad. Augm. Hess. CNVTRAH         .... auto
   Auto Start mean grad. ratio tolernc. ....  1.125000
   Auto Start start iteration           ....    20
   Auto Start num. interpolation iter.  ....    10
   Max. Number of Micro iterations      ....    16
   Max. Number of Macro iterations      .... Maxiter - #DIIS iter
   Number of Davidson start vectors     ....     2
   Converg. threshold I  (grad. norm)   ....   1.000e-05
   Converg. threshold II (energy diff.) ....   1.000e-08
   Grad. Scal. Fac. for Micro threshold ....   0.100
   Minimum threshold for Micro iter.    ....   0.010
   NR start threshold (gradient norm)   ....   0.001
   Initial trust radius                 ....   0.400
   Minimum AH scaling param. (alpha)    ....   1.000
   Maximum AH scaling param. (alpha)    .... 1000.000
   Orbital update algorithm             .... Taylor
   White noise on init. David. guess    .... on
   Maximum white noise                  ....   0.010
   Quad. conv. algorithm                .... NR
 SOSCF                  CNVSOSCF        .... on
   Start iteration      SOSCFMaxIt      ....   150
   Startup grad/error   SOSCFStart      ....  0.003300
 Level Shifting         CNVShift        .... on
   Level shift para.    LevelShift      ....    0.2500
   Turn off err/grad.   ShiftErr        ....    0.0010
 Zerner damping         CNVZerner       .... off
 Static damping         CNVDamp         .... on
   Fraction old density DampFac         ....    0.7000
   Max. Damping (<1)    DampMax         ....    0.9800
   Min. Damping (>=0)   DampMin         ....    0.0000
   Turn off err/grad.   DampErr         ....    0.1000
 Fernandez-Rico         CNVRico         .... off

SCF Procedure:
 Maximum # iterations   MaxIter         ....   125
 SCF integral mode      SCFMode         .... Direct
   Integral package                     .... SHARK and LIBINT hybrid scheme
 Reset frequency        DirectResetFreq ....    20
 Integral Threshold     Thresh          ....  2.500e-11 Eh
 Primitive CutOff       TCut            ....  2.500e-12 Eh

Convergence Tolerance:
 Convergence Check Mode ConvCheckMode   .... Total+1el-Energy
 Convergence forced     ConvForced      .... 0
 Energy Change          TolE            ....  1.000e-08 Eh
 1-El. energy change                    ....  1.000e-05 Eh
 Orbital Gradient       TolG            ....  1.000e-05
 Orbital Rotation angle TolX            ....  1.000e-05
 DIIS Error             TolErr          ....  5.000e-07


Diagonalization of the overlap matrix:
Smallest eigenvalue                        ... 4.070e-04
Time for diagonalization                   ...    0.035 sec
Threshold for overlap eigenvalues          ... 1.000e-08
Number of eigenvalues below threshold      ... 0
Time for construction of square roots      ...    0.040 sec
Total time needed                          ...    0.077 sec

Time for model grid setup =    0.286 sec

------------------------------
INITIAL GUESS: MODEL POTENTIAL
------------------------------
Loading Hartree-Fock densities                     ... done
Calculating cut-offs                               ... done
Initializing the effective Hamiltonian             ... done
Setting up the integral package (SHARK)            ... done
Starting the Coulomb interaction                   ... done (   0.1 sec)
Reading the grid                                   ... done
Mapping shells                                     ... done
Starting the XC term evaluation                    ... done (   0.1 sec)
  promolecular density results
     # of electrons  =    193.989175220
     EX              =   -155.465744520
     EC              =     -6.537114006
     EX+EC           =   -162.002858526
Transforming the Hamiltonian                       ... done (   0.0 sec)
Diagonalizing the Hamiltonian                      ... done (   0.0 sec)
Back transforming the eigenvectors                 ... done (   0.0 sec)
Now organizing SCF variables                       ... done
                      ------------------
                      INITIAL GUESS DONE (   0.6 sec)
                      ------------------
-------------------
DFT GRID GENERATION
-------------------

General Integration Accuracy     IntAcc      ... 4.388
Radial Grid Type                 RadialGrid  ... OptM3 with GC (2021)
Angular Grid (max. ang.)         AngularGrid ... 4 (Lebedev-302)
Angular grid pruning method      GridPruning ... 4 (adaptive)
Weight generation scheme         WeightScheme... Becke
Basis function cutoff            BFCut       ... 1.0000e-11
Integration weight cutoff        WCut        ... 1.0000e-14
Angular grids for H and He will be reduced by one unit
Partially contracted basis set               ... off
Rotationally invariant grid construction     ... off

Total number of grid points                  ...   243323
Total number of batches                      ...     3834
Average number of points per batch           ...       63
Average number of grid points per atom       ...     4591
Time for grid setup =    1.508 sec

--------------------
COSX GRID GENERATION
--------------------

GRIDX 1
-------
General Integration Accuracy     IntAcc      ... 3.816
Radial Grid Type                 RadialGrid  ... OptM3 with GC (2021)
Angular Grid (max. ang.)         AngularGrid ... 1 (Lebedev-50)
Angular grid pruning method      GridPruning ... 4 (adaptive)
Weight generation scheme         WeightScheme... Becke
Basis function cutoff            BFCut       ... 1.0000e-11
Integration weight cutoff        WCut        ... 1.0000e-14
Angular grids for H and He will be reduced by one unit
Partially contracted basis set               ... on
Rotationally invariant grid construction     ... off

Total number of grid points                  ...    30873
Total number of batches                      ...      507
Average number of points per batch           ...       60
Average number of grid points per atom       ...      583
UseSFitting                                  ... on

GRIDX 2
-------
General Integration Accuracy     IntAcc      ... 4.020
Radial Grid Type                 RadialGrid  ... OptM3 with GC (2021)
Angular Grid (max. ang.)         AngularGrid ... 2 (Lebedev-110)
Angular grid pruning method      GridPruning ... 4 (adaptive)
Weight generation scheme         WeightScheme... Becke
Basis function cutoff            BFCut       ... 1.0000e-11
Integration weight cutoff        WCut        ... 1.0000e-14
Angular grids for H and He will be reduced by one unit
Partially contracted basis set               ... on
Rotationally invariant grid construction     ... off

Total number of grid points                  ...    66154
Total number of batches                      ...     1057
Average number of points per batch           ...       62
Average number of grid points per atom       ...     1248
UseSFitting                                  ... on

GRIDX 3
-------
General Integration Accuracy     IntAcc      ... 4.338
Radial Grid Type                 RadialGrid  ... OptM3 with GC (2021)
Angular Grid (max. ang.)         AngularGrid ... 3 (Lebedev-194)
Angular grid pruning method      GridPruning ... 4 (adaptive)
Weight generation scheme         WeightScheme... Becke
Basis function cutoff            BFCut       ... 1.0000e-11
Integration weight cutoff        WCut        ... 1.0000e-14
Angular grids for H and He will be reduced by one unit
Partially contracted basis set               ... on
Rotationally invariant grid construction     ... off

Total number of grid points                  ...   144273
Total number of batches                      ...     2281
Average number of points per batch           ...       63
Average number of grid points per atom       ...     2722
UseSFitting                                  ... on

Time for X-Grid setup             =    1.590 sec

--------------
SCF ITERATIONS
--------------
ITER       Energy         Delta-E        Max-DP      RMS-DP      [F,P]     Damp
               ***  Starting incremental Fock matrix formation  ***
  0  -1150.6397486314   0.000000000000 0.11646613  0.00169326  0.2675869 0.7000
  1  -1150.9654590444  -0.325710413044 0.05586308  0.00110474  0.0896850 0.7000
                               ***Turning on DIIS***
  2  -1151.0866796832  -0.121220638841 0.07501628  0.00171661  0.0358784 0.0000
  3  -1151.2924817141  -0.205802030885 0.04269811  0.00079252  0.0404529 0.0000
  4  -1151.3303257299  -0.037844015771 0.01456678  0.00027744  0.0232556 0.0000
  5  -1151.3344375763  -0.004111846417 0.00443440  0.00007627  0.0066489 0.0000
                      *** Initiating the SOSCF procedure ***
                           *** Shutting down DIIS ***
                      *** Re-Reading the Fockian *** 
                      *** Removing any level shift *** 
ITER      Energy       Delta-E        Grad      Rot      Max-DP    RMS-DP
  6  -1151.33463601  -0.0001984371  0.000241  0.000241  0.001203  0.000025
               *** Restarting incremental Fock matrix formation ***
  7  -1151.33470422  -0.0000682095  0.000131  0.000410  0.000947  0.000015
  8  -1151.33470239   0.0000018355  0.000215  0.000380  0.000524  0.000008
  9  -1151.33470683  -0.0000044390  0.000035  0.000132  0.000172  0.000003
 10  -1151.33470669   0.0000001394  0.000064  0.000088  0.000113  0.000002
 11  -1151.33470691  -0.0000002213  0.000011  0.000032  0.000069  0.000001
 12  -1151.33470690   0.0000000126  0.000018  0.000024  0.000042  0.000001
                  ***Gradient check signals convergence***
              ***Rediagonalizing the Fockian in SOSCF/NRSCF***

               *****************************************************
               *                     SUCCESS                       *
               *           SCF CONVERGED AFTER  13 CYCLES          *
               *****************************************************

Old exchange energy                            =    -31.634651704 Eh
New exchange energy                            =    -31.634642776 Eh
Exchange energy change after final integration =      0.000008928 Eh
Total energy after final integration           =  -1151.334697992 Eh
Final COS-X integration done in                =     5.316 sec

----------------
TOTAL SCF ENERGY
----------------

Total Energy       :        -1151.33469799 Eh          -31329.40989 eV

Components:
Nuclear Repulsion  :         2282.48462637 Eh           62109.56427 eV
Electronic Energy  :        -3433.81932436 Eh          -93438.97416 eV
One Electron Energy:        -6098.75302848 Eh         -165955.50692 eV
Two Electron Energy:         2664.93370412 Eh           72516.53276 eV
Max COSX asymmetry :            0.00000217 Eh               0.00006 eV

Virial components:
Potential Energy   :        -2295.07525090 Eh          -62452.17258 eV
Kinetic Energy     :         1143.74055291 Eh           31122.76270 eV
Virial Ratio       :            2.00663974


DFT components:
N(Alpha)           :       97.000008880215 electrons
N(Beta)            :       97.000008880215 electrons
N(Total)           :      194.000017760430 electrons
E(X)               :     -125.579585984050 Eh       
E(C)               :       -7.697166338377 Eh       
E(XC)              :     -133.276752322428 Eh       
DFET-embed. en.    :        0.000000000000 Eh       

---------------
SCF CONVERGENCE
---------------

  Last Energy change         ...   -2.4271e-08  Tolerance :   1.0000e-08
  Last MAX-Density change    ...    3.9968e-15  Tolerance :   1.0000e-07
  Last RMS-Density change    ...    4.2794e-17  Tolerance :   5.0000e-09
  Last Orbital Gradient      ...    1.5507e-06  Tolerance :   1.0000e-05
  Last Orbital Rotation      ...    5.5001e-06  Tolerance :   1.0000e-05

             **** THE GBW FILE WAS UPDATED (compound_medoid_5/compound_medoid_5.gbw) ****
             **** DENSITY compound_medoid_5/compound_medoid_5.scfp WAS UPDATED ****
             **** ENERGY FILE WAS UPDATED (compound_medoid_5/compound_medoid_5.en.tmp) ****
             **** THE GBW FILE WAS UPDATED (compound_medoid_5/compound_medoid_5.gbw) ****
             **** DENSITY compound_medoid_5/compound_medoid_5.scfp WAS UPDATED ****
----------------
ORBITAL ENERGIES
----------------

  NO   OCC          E(Eh)            E(eV) 
   0   2.0000     -19.129798      -520.5483 
   1   2.0000     -19.127227      -520.4783 
   2   2.0000     -14.388411      -391.5286 
   3   2.0000     -14.306401      -389.2970 
   4   2.0000     -10.308032      -280.4958 
   5   2.0000     -10.304807      -280.4081 
   6   2.0000     -10.217603      -278.0351 
   7   2.0000     -10.216308      -277.9999 
   8   2.0000     -10.215263      -277.9715 
   9   2.0000     -10.211010      -277.8557 
  10   2.0000     -10.202594      -277.6267 
  11   2.0000     -10.200818      -277.5784 
  12   2.0000     -10.199243      -277.5355 
  13   2.0000     -10.196632      -277.4645 
  14   2.0000     -10.196315      -277.4558 
  15   2.0000     -10.193565      -277.3810 
  16   2.0000     -10.190353      -277.2936 
  17   2.0000     -10.177661      -276.9482 
  18   2.0000     -10.176798      -276.9247 
  19   2.0000     -10.172180      -276.7991 
  20   2.0000     -10.171694      -276.7859 
  21   2.0000     -10.171463      -276.7796 
  22   2.0000     -10.170804      -276.7616 
  23   2.0000     -10.170520      -276.7539 
  24   2.0000     -10.168959      -276.7114 
  25   2.0000     -10.168773      -276.7064 
  26   2.0000     -10.167842      -276.6810 
  27   2.0000      -1.037472       -28.2310 
  28   2.0000      -1.017361       -27.6838 
  29   2.0000      -0.926476       -25.2107 
  30   2.0000      -0.904979       -24.6257 
  31   2.0000      -0.875791       -23.8315 
  32   2.0000      -0.838499       -22.8167 
  33   2.0000      -0.810142       -22.0451 
  34   2.0000      -0.798150       -21.7188 
  35   2.0000      -0.771740       -21.0001 
  36   2.0000      -0.753134       -20.4938 
  37   2.0000      -0.738973       -20.1085 
  38   2.0000      -0.731248       -19.8983 
  39   2.0000      -0.730474       -19.8772 
  40   2.0000      -0.723079       -19.6760 
  41   2.0000      -0.678188       -18.4544 
  42   2.0000      -0.649974       -17.6867 
  43   2.0000      -0.631824       -17.1928 
  44   2.0000      -0.620680       -16.8896 
  45   2.0000      -0.617746       -16.8097 
  46   2.0000      -0.606302       -16.4983 
  47   2.0000      -0.592702       -16.1282 
  48   2.0000      -0.582063       -15.8387 
  49   2.0000      -0.562876       -15.3166 
  50   2.0000      -0.546565       -14.8728 
  51   2.0000      -0.526915       -14.3381 
  52   2.0000      -0.513922       -13.9845 
  53   2.0000      -0.498820       -13.5736 
  54   2.0000      -0.495646       -13.4872 
  55   2.0000      -0.487767       -13.2728 
  56   2.0000      -0.481235       -13.0951 
  57   2.0000      -0.471865       -12.8401 
  58   2.0000      -0.465256       -12.6603 
  59   2.0000      -0.457255       -12.4425 
  60   2.0000      -0.449808       -12.2399 
  61   2.0000      -0.447066       -12.1653 
  62   2.0000      -0.444751       -12.1023 
  63   2.0000      -0.435573       -11.8526 
  64   2.0000      -0.427071       -11.6212 
  65   2.0000      -0.424004       -11.5377 
  66   2.0000      -0.420702       -11.4479 
  67   2.0000      -0.415887       -11.3169 
  68   2.0000      -0.409209       -11.1352 
  69   2.0000      -0.405389       -11.0312 
  70   2.0000      -0.401511       -10.9257 
  71   2.0000      -0.398865       -10.8537 
  72   2.0000      -0.395016       -10.7489 
  73   2.0000      -0.386565       -10.5190 
  74   2.0000      -0.381486       -10.3808 
  75   2.0000      -0.372523       -10.1369 
  76   2.0000      -0.367504       -10.0003 
  77   2.0000      -0.361373        -9.8335 
  78   2.0000      -0.356843        -9.7102 
  79   2.0000      -0.354414        -9.6441 
  80   2.0000      -0.351839        -9.5740 
  81   2.0000      -0.349209        -9.5025 
  82   2.0000      -0.342545        -9.3211 
  83   2.0000      -0.338205        -9.2030 
  84   2.0000      -0.329371        -8.9626 
  85   2.0000      -0.320411        -8.7188 
  86   2.0000      -0.309419        -8.4197 
  87   2.0000      -0.302229        -8.2241 
  88   2.0000      -0.293208        -7.9786 
  89   2.0000      -0.273879        -7.4526 
  90   2.0000      -0.264339        -7.1930 
  91   2.0000      -0.262944        -7.1551 
  92   2.0000      -0.257760        -7.0140 
  93   2.0000      -0.251843        -6.8530 
  94   2.0000      -0.237453        -6.4614 
  95   2.0000      -0.231612        -6.3025 
  96   2.0000      -0.193567        -5.2672 
  97   0.0000      -0.060109        -1.6357 
  98   0.0000      -0.022795        -0.6203 
  99   0.0000      -0.010203        -0.2776 
 100   0.0000       0.007745         0.2108 
 101   0.0000       0.012313         0.3350 
 102   0.0000       0.055159         1.5010 
 103   0.0000       0.074076         2.0157 
 104   0.0000       0.088205         2.4002 
 105   0.0000       0.097193         2.6448 
 106   0.0000       0.102184         2.7806 
 107   0.0000       0.104424         2.8415 
 108   0.0000       0.116715         3.1760 
 109   0.0000       0.123713         3.3664 
 110   0.0000       0.129731         3.5302 
 111   0.0000       0.131266         3.5719 
 112   0.0000       0.138941         3.7808 
 113   0.0000       0.140217         3.8155 
 114   0.0000       0.151935         4.1344 
 115   0.0000       0.152991         4.1631 
 116   0.0000       0.157076         4.2743 
 117   0.0000       0.161363         4.3909 
 118   0.0000       0.164883         4.4867 
 119   0.0000       0.168768         4.5924 
 120   0.0000       0.171598         4.6694 
 121   0.0000       0.174433         4.7466 
 122   0.0000       0.178026         4.8443 
 123   0.0000       0.179888         4.8950 
 124   0.0000       0.181223         4.9313 
 125   0.0000       0.190029         5.1710 
 126   0.0000       0.191523         5.2116 
 127   0.0000       0.195182         5.3112 
 128   0.0000       0.198148         5.3919 
 129   0.0000       0.200940         5.4679 
 130   0.0000       0.206561         5.6208 
 131   0.0000       0.209484         5.7004 
 132   0.0000       0.214134         5.8269 
 133   0.0000       0.218017         5.9325 
 134   0.0000       0.226033         6.1507 
 135   0.0000       0.229567         6.2468 
 136   0.0000       0.240860         6.5541 
 137   0.0000       0.244422         6.6511 
 138   0.0000       0.255776         6.9600 
 139   0.0000       0.260174         7.0797 
 140   0.0000       0.269009         7.3201 
 141   0.0000       0.278280         7.5724 
 142   0.0000       0.285657         7.7731 
 143   0.0000       0.290949         7.9171 
[...]
  50 H :    0.121016
  51 H :    0.123117
  52 H :    0.120181

-------------------------------
LOEWDIN REDUCED ORBITAL CHARGES
-------------------------------
  0 O s       :     3.557219  s :     3.557219
      pz      :     1.499476  p :     4.627239
      px      :     1.664721
      py      :     1.463042
      dz2     :     0.007443  d :     0.055922
      dxz     :     0.005421
      dyz     :     0.012458
      dx2y2   :     0.014020
      dxy     :     0.016579
  1 C s       :     2.848527  s :     2.848527
      pz      :     0.855177  p :     2.769052
      px      :     0.981770
      py      :     0.932106
      dz2     :     0.035742  d :     0.256218
      dxz     :     0.026378
      dyz     :     0.056594
      dx2y2   :     0.069082
      dxy     :     0.068422
  2 C s       :     2.930644  s :     2.930644
      pz      :     1.120717  p :     3.238104
      px      :     1.050083
      py      :     1.067304
      dz2     :     0.020629  d :     0.081331
      dxz     :     0.008968
      dyz     :     0.011944
      dx2y2   :     0.020106
      dxy     :     0.019684
  3 C s       :     2.870637  s :     2.870637
      pz      :     0.980668  p :     3.033920
      px      :     1.040240
      py      :     1.013012
      dz2     :     0.013568  d :     0.103149
      dxz     :     0.017509
      dyz     :     0.015468
      dx2y2   :     0.027793
      dxy     :     0.028811
  4 C s       :     2.915119  s :     2.915119
      pz      :     1.024586  p :     3.132798
      px      :     1.048867
      py      :     1.059345
      dz2     :     0.007121  d :     0.084440
      dxz     :     0.013920
      dyz     :     0.014364
      dx2y2   :     0.022439
      dxy     :     0.026596
  5 C s       :     2.920497  s :     2.920497
      pz      :     0.992842  p :     3.101522
      px      :     1.055776
      py      :     1.052904
      dz2     :     0.010657  d :     0.085501
      dxz     :     0.011027
      dyz     :     0.016738
      dx2y2   :     0.025118
      dxy     :     0.021962
  6 C s       :     2.916521  s :     2.916521
      pz      :     1.011254  p :     3.127876
      px      :     1.058007
      py      :     1.058615
      dz2     :     0.010774  d :     0.084931
      dxz     :     0.016195
      dyz     :     0.010777
      dx2y2   :     0.023080
      dxy     :     0.024106
  7 C s       :     2.917978  s :     2.917978
      pz      :     0.988853  p :     3.089267
      px      :     1.051032
      py      :     1.049382
      dz2     :     0.007138  d :     0.084739
      dxz     :     0.015090
      dyz     :     0.013717
      dx2y2   :     0.022679
      dxy     :     0.026114
  8 C s       :     2.874378  s :     2.874378
      pz      :     1.022109  p :     3.089506
      px      :     1.014546
      py      :     1.052851
      dz2     :     0.012196  d :     0.099751
      dxz     :     0.014486
      dyz     :     0.017848
      dx2y2   :     0.029450
      dxy     :     0.025771
  9 C s       :     2.843113  s :     2.843113
      pz      :     0.877035  p :     2.773325
      px      :     0.979570
      py      :     0.916720
      dz2     :     0.034869  d :     0.254269
      dxz     :     0.040938
      dyz     :     0.047766
      dx2y2   :     0.081069
      dxy     :     0.049626
 10 O s       :     3.557073  s :     3.557073
      pz      :     1.417009  p :     4.625697
      px      :     1.633439
      py      :     1.575249
      dz2     :     0.009703  d :     0.055387
      dxz     :     0.010917
      dyz     :     0.013491
      dx2y2   :     0.008628
      dxy     :     0.012648
 11 N s       :     3.106833  s :     3.106833
      pz      :     1.389330  p :     3.849082
      px      :     1.223883
      py      :     1.235869
      dz2     :     0.011791  d :     0.093233
      dxz     :     0.015925
      dyz     :     0.016180
      dx2y2   :     0.023692
      dxy     :     0.025646
 12 C s       :     2.925022  s :     2.925022
      pz      :     1.104164  p :     3.123037
      px      :     0.892740
      py      :     1.126133
      dz2     :     0.024519  d :     0.108155
      dxz     :     0.023253
      dyz     :     0.010775
      dx2y2   :     0.036481
      dxy     :     0.013127
 13 C s       :     2.938652  s :     2.938652
      pz      :     1.080409  p :     3.210600
      px      :     1.030121
      py      :     1.100070
      dz2     :     0.019788  d :     0.083227
      dxz     :     0.017644
      dyz     :     0.010010
      dx2y2   :     0.024033
      dxy     :     0.011753
 14 C s       :     2.896956  s :     2.896956
      pz      :     1.050367  p :     3.122641
      px      :     1.029979
      py      :     1.042294
      dz2     :     0.020364  d :     0.099603
      dxz     :     0.019392
      dyz     :     0.019718
      dx2y2   :     0.022027
      dxy     :     0.018103
 15 C s       :     2.937781  s :     2.937781
      pz      :     1.068340  p :     3.218198
      px      :     1.046288
      py      :     1.103571
      dz2     :     0.018300  d :     0.081799
      dxz     :     0.015750
      dyz     :     0.015720
      dx2y2   :     0.018392
      dxy     :     0.013636
 16 C s       :     2.930126  s :     2.930126
      pz      :     1.044968  p :     3.115111
      px      :     1.030356
      py      :     1.039787
      dz2     :     0.035886  d :     0.112036
      dxz     :     0.015421
      dyz     :     0.015541
      dx2y2   :     0.023705
      dxy     :     0.021484
 17 N s       :     3.158400  s :     3.158400
      pz      :     1.596201  p :     3.924982
      px      :     1.115621
      py      :     1.213160
      dz2     :     0.011201  d :     0.092907
      dxz     :     0.016593
      dyz     :     0.014001
      dx2y2   :     0.024892
      dxy     :     0.026220
 18 C s       :     2.921604  s :     2.921604
      pz      :     1.095206  p :     3.111634
      px      :     0.946049
      py      :     1.070378
      dz2     :     0.026085  d :     0.117070
      dxz     :     0.021424
      dyz     :     0.016330
      dx2y2   :     0.027481
      dxy     :     0.025750
 19 C s       :     2.882559  s :     2.882559
      pz      :     1.052444  p :     3.044413
      px      :     0.994355
      py      :     0.997614
      dz2     :     0.025546  d :     0.099625
      dxz     :     0.021385
      dyz     :     0.023924
      dx2y2   :     0.012920
      dxy     :     0.015851
 20 C s       :     2.917618  s :     2.917618
      pz      :     1.058173  p :     3.133619
      px      :     1.034372
      py      :     1.041074
      dz2     :     0.019079  d :     0.084568
      dxz     :     0.014669
      dyz     :     0.020350
      dx2y2   :     0.014862
      dxy     :     0.015608
 21 C s       :     2.917732  s :     2.917732
      pz      :     1.059016  p :     3.127224
      px      :     1.029458
      py      :     1.038749
      dz2     :     0.018174  d :     0.085376
      dxz     :     0.020127
      dyz     :     0.020823
      dx2y2   :     0.012654
      dxy     :     0.013598
 22 C s       :     2.918115  s :     2.918115
      pz      :     1.059828  p :     3.130954
      px      :     1.031618
      py      :     1.039508
      dz2     :     0.024550  d :     0.084980
      dxz     :     0.019330
      dyz     :     0.019020
      dx2y2   :     0.007536
      dxy     :     0.014544
 23 C s       :     2.917886  s :     2.917886
      pz      :     1.057129  p :     3.126153
      px      :     1.029644
      py      :     1.039379
      dz2     :     0.019081  d :     0.085555
      dxz     :     0.014997
      dyz     :     0.020547
      dx2y2   :     0.015321
      dxy     :     0.015609
 24 C s       :     2.917293  s :     2.917293
      pz      :     1.058012  p :     3.124933
      px      :     1.030785
      py      :     1.036136
      dz2     :     0.017684  d :     0.084182
      dxz     :     0.019505
      dyz     :     0.020718
      dx2y2   :     0.012654
      dxy     :     0.013622
 25 C s       :     2.929781  s :     2.929781
      pz      :     1.094230  p :     3.113502
      px      :     1.034272
      py      :     0.985000
      dz2     :     0.019398  d :     0.114611
      dxz     :     0.020415
      dyz     :     0.025108
      dx2y2   :     0.018087
      dxy     :     0.031603
 26 C s       :     2.942964  s :     2.942964
      pz      :     1.095857  p :     3.209619
      px      :     1.054205
      py      :     1.059557
      dz2     :     0.021920  d :     0.080614
      dxz     :     0.013037
      dyz     :     0.010193
      dx2y2   :     0.014688
      dxy     :     0.020777
 27 H s       :     0.835444  s :     0.835444
 28 H s       :     0.832159  s :     0.832159
 29 H s       :     0.865830  s :     0.865830
 30 H s       :     0.863250  s :     0.863250
 31 H s       :     0.863031  s :     0.863031
 32 H s       :     0.846900  s :     0.846900
 33 H s       :     0.857129  s :     0.857129
 34 H s       :     0.859164  s :     0.859164
 35 H s       :     0.873111  s :     0.873111
 36 H s       :     0.872223  s :     0.872223
 37 H s       :     0.873547  s :     0.873547
 38 H s       :     0.882830  s :     0.882830
 39 H s       :     0.870395  s :     0.870395
 40 H s       :     0.875291  s :     0.875291
 41 H s       :     0.904199  s :     0.904199
 42 H s       :     0.902366  s :     0.902366
 43 H s       :     0.871376  s :     0.871376
 44 H s       :     0.873071  s :     0.873071
 45 H s       :     0.870936  s :     0.870936
 46 H s       :     0.871204  s :     0.871204
 47 H s       :     0.871013  s :     0.871013
 48 H s       :     0.864614  s :     0.864614
 49 H s       :     0.907014  s :     0.907014
 50 H s       :     0.878984  s :     0.878984
 51 H s       :     0.876883  s :     0.876883
 52 H s       :     0.879819  s :     0.879819


                      *****************************
                      * MAYER POPULATION ANALYSIS *
                      *****************************

  NA   - Mulliken gross atomic population
  ZA   - Total nuclear charge
  QA   - Mulliken gross atomic charge
  VA   - Mayer's total valence
  BVA  - Mayer's bonded valence
  FA   - Mayer's free valence

  ATOM       NA         ZA         QA         VA         BVA        FA
  0 O      8.4480     8.0000    -0.4480     2.0761     2.0761     0.0000
  1 C      5.4456     6.0000     0.5544     3.9226     3.9226     0.0000
  2 C      6.4754     6.0000    -0.4754     3.7884     3.7884    -0.0000
  3 C      5.8483     6.0000     0.1517     3.8723     3.8723    -0.0000
  4 C      6.1901     6.0000    -0.1901     3.9241     3.9241     0.0000
  5 C      6.1141     6.0000    -0.1141     3.9282     3.9282     0.0000
  6 C      6.1351     6.0000    -0.1351     3.9088     3.9088     0.0000
  7 C      6.1614     6.0000    -0.1614     3.9021     3.9021     0.0000
  8 C      5.9825     6.0000     0.0175     3.9632     3.9632     0.0000
  9 C      5.5010     6.0000     0.4990     3.9145     3.9145    -0.0000
 10 O      8.4460     8.0000    -0.4460     2.0970     2.0970    -0.0000
 11 N      7.4794     7.0000    -0.4794     3.0455     3.0455     0.0000
 12 C      6.1577     6.0000    -0.1577     3.7961     3.7961     0.0000
 13 C      6.2743     6.0000    -0.2743     3.8523     3.8523     0.0000
 14 C      6.0653     6.0000    -0.0653     3.9105     3.9105    -0.0000
 15 C      6.3092     6.0000    -0.3092     3.8726     3.8726     0.0000
 16 C      6.1188     6.0000    -0.1188     3.8383     3.8383    -0.0000
 17 N      7.3761     7.0000    -0.3761     2.9897     2.9897     0.0000
 18 C      6.1932     6.0000    -0.1932     3.8424     3.8424    -0.0000
 19 C      5.8566     6.0000     0.1434     3.9736     3.9736    -0.0000
 20 C      6.1823     6.0000    -0.1823     3.9386     3.9386     0.0000
 21 C      6.1266     6.0000    -0.1266     3.9425     3.9425     0.0000
 22 C      6.1273     6.0000    -0.1273     3.9460     3.9460    -0.0000
 23 C      6.1291     6.0000    -0.1291     3.9315     3.9315     0.0000
 24 C      6.1612     6.0000    -0.1612     3.9165     3.9165    -0.0000
 25 C      6.1289     6.0000    -0.1289     3.8449     3.8449     0.0000
 26 C      6.2719     6.0000    -0.2719     3.8573     3.8573    -0.0000
 27 H      0.8007     1.0000     0.1993     0.9226     0.9226     0.0000
 28 H      0.7970     1.0000     0.2030     0.9167     0.9167     0.0000
 29 H      0.8670     1.0000     0.1330     0.9384     0.9384     0.0000
 30 H      0.8608     1.0000     0.1392     0.9360     0.9360     0.0000
 31 H      0.8604     1.0000     0.1396     0.9368     0.9368     0.0000
 32 H      0.8328     1.0000     0.1672     0.9440     0.9440     0.0000
 33 H      0.8219     1.0000     0.1781     0.9401     0.9401     0.0000
 34 H      0.8251     1.0000     0.1749     0.9415     0.9415     0.0000
 35 H      0.8550     1.0000     0.1450     0.9358     0.9358     0.0000
 36 H      0.8528     1.0000     0.1472     0.9370     0.9370     0.0000
 37 H      0.8624     1.0000     0.1376     0.9310     0.9310    -0.0000
 38 H      0.8651     1.0000     0.1349     0.9328     0.9328     0.0000
 39 H      0.8519     1.0000     0.1481     0.9339     0.9339    -0.0000
 40 H      0.8489     1.0000     0.1511     0.9345     0.9345     0.0000
 41 H      0.8929     1.0000     0.1071     0.9367     0.9367    -0.0000
 42 H      0.8879     1.0000     0.1121     0.9393     0.9393     0.0000
 43 H      0.8532     1.0000     0.1468     0.9323     0.9323     0.0000
 44 H      0.8806     1.0000     0.1194     0.9424     0.9424     0.0000
 45 H      0.8760     1.0000     0.1240     0.9380     0.9380     0.0000
 46 H      0.8764     1.0000     0.1236     0.9380     0.9380     0.0000
 47 H      0.8756     1.0000     0.1244     0.9380     0.9380     0.0000
 48 H      0.8655     1.0000     0.1345     0.9482     0.9482     0.0000
 49 H      0.8905     1.0000     0.1095     0.9326     0.9326     0.0000
 50 H      0.8653     1.0000     0.1347     0.9384     0.9384     0.0000
 51 H      0.8629     1.0000     0.1371     0.9341     0.9341     0.0000
 52 H      0.8657     1.0000     0.1343     0.9363     0.9363    -0.0000

  Mayer bond orders larger than 0.100000
B(  0-O ,  1-C ) :   1.8507 B(  1-C ,  2-C ) :   0.9675 B(  1-C , 11-N ) :   1.0454 
B(  2-C ,  3-C ) :   0.9392 B(  2-C , 27-H ) :   0.9112 B(  2-C , 28-H ) :   0.9029 
B(  3-C ,  4-C ) :   1.4022 B(  3-C ,  8-C ) :   1.4132 B(  4-C ,  5-C ) :   1.4513 
B(  4-C , 29-H ) :   0.9264 B(  5-C ,  6-C ) :   1.4165 B(  5-C , 30-H ) :   0.9289 
B(  6-C ,  7-C ) :   1.4427 B(  6-C , 31-H ) :   0.9295 B(  7-C ,  8-C ) :   1.3829 
B(  7-C , 32-H ) :   0.9067 B(  8-C ,  9-C ) :   0.9994 B(  9-C , 10-O ) :   1.8416 
B(  9-C , 11-N ) :   0.9764 B( 11-N , 12-C ) :   0.9023 B( 12-C , 13-C ) :   0.9992 
B( 12-C , 33-H ) :   0.9123 B( 12-C , 34-H ) :   0.9132 B( 13-C , 14-C ) :   0.9998 
B( 13-C , 35-H ) :   0.9327 B( 13-C , 36-H ) :   0.9310 B( 14-C , 15-C ) :   1.0036 
B( 14-C , 26-C ) :   1.0013 B( 14-C , 37-H ) :   0.9266 B( 15-C , 16-C ) :   0.9956 
B( 15-C , 38-H ) :   0.9372 B( 15-C , 39-H ) :   0.9387 B( 16-C , 17-N ) :   0.9736 
B( 16-C , 40-H ) :   0.9320 B( 16-C , 41-H ) :   0.9209 B( 17-N , 18-C ) :   0.9793 
B( 17-N , 25-C ) :   0.9750 B( 18-C , 19-C ) :   0.9784 B( 18-C , 42-H ) :   0.9078 
B( 18-C , 43-H ) :   0.9232 B( 19-C , 20-C ) :   1.4448 B( 19-C , 24-C ) :   1.4279 
B( 20-C , 21-C ) :   1.4309 B( 20-C , 44-H ) :   0.9223 B( 21-C , 22-C ) :   1.4615 
B( 21-C , 45-H ) :   0.9305 B( 22-C , 23-C ) :   1.4409 B( 22-C , 46-H ) :   0.9313 
B( 23-C , 24-C ) :   1.4414 B( 23-C , 47-H ) :   0.9311 B( 24-C , 48-H ) :   0.9167 
B( 25-C , 26-C ) :   0.9897 B( 25-C , 49-H ) :   0.9223 B( 25-C , 50-H ) :   0.9403 
B( 26-C , 51-H ) :   0.9429 B( 26-C , 52-H ) :   0.9338 

-------
TIMINGS
-------

Total SCF time: 0 days 0 hours 0 min 26 sec 

Total time                  ....      26.495 sec
Sum of individual times     ....      25.372 sec  ( 95.8%)

Fock matrix formation       ....      21.944 sec  ( 82.8%)
  Split-RI-J                ....       2.537 sec  ( 11.6% of F)
  Chain of spheres X        ....      16.434 sec  ( 74.9% of F)
  XC integration            ....       2.538 sec  ( 11.6% of F)
    Basis function eval.    ....       0.417 sec  ( 16.4% of XC)
    Density eval.           ....       0.267 sec  ( 10.5% of XC)
    XC-Functional eval.     ....       0.069 sec  (  2.7% of XC)
    XC-Potential eval.      ....       0.167 sec  (  6.6% of XC)
Diagonalization             ....       0.058 sec  (  0.2%)
Density matrix formation    ....       0.084 sec  (  0.3%)
Population analysis         ....       0.074 sec  (  0.3%)
Initial guess               ....       0.147 sec  (  0.6%)
Orbital Transformation      ....       0.000 sec  (  0.0%)
Orbital Orthonormalization  ....       0.090 sec  (  0.3%)
DIIS solution               ....       0.063 sec  (  0.2%)
SOSCF solution              ....       0.288 sec  (  1.1%)
Grid generation             ....       2.713 sec  ( 10.2%)

Maximum memory used throughout the entire SCF-calculation: 93.1 MB

-------------------------   --------------------
FINAL SINGLE POINT ENERGY     -1151.357046449209
-------------------------   --------------------

                                *** OPTIMIZATION RUN DONE ***

                            ***************************************
                            *     ORCA property calculations      *
                            ***************************************

                                    ---------------------
                                    Active property flags
                                    ---------------------
   (+) Dipole Moment


------------------------------------------------------------------------------
                       ORCA ELECTRIC PROPERTIES CALCULATION
------------------------------------------------------------------------------

Dipole Moment Calculation                       ... on
Quadrupole Moment Calculation                   ... off
Polarizability Calculation                      ... off
GBWName                                         ... compound_medoid_5/compound_medoid_5.gbw
Electron density                                ... compound_medoid_5/compound_medoid_5.scfp
The origin for moment calculation is the CENTER OF MASS  = (-0.780041,  0.067638 -0.099230)

-------------
DIPOLE MOMENT
-------------
                                X             Y             Z
Electronic contribution:    -21.72920      -4.45296      -3.04140
Nuclear contribution   :     20.52304       4.26187       2.82570
                        -----------------------------------------
Total Dipole Moment    :     -1.20616      -0.19109      -0.21570
                        -----------------------------------------
Magnitude (a.u.)       :      1.24011
Magnitude (Debye)      :      3.15210



--------------------
Rotational spectrum 
--------------------
 
Rotational constants in cm-1:     0.017178     0.001963     0.001846 
Rotational constants in MHz :   514.997080    58.860771    55.331672 

 Dipole components along the rotational axes: 
x,y,z [a.u.] :    -1.223335    -0.168048     0.114353 
x,y,z [Debye]:    -3.109470    -0.427145     0.290663 

 

======================   ALLOCATED NODES   ======================
	gpua068: flags=0x11 slots=1 max_slots=0 slots_inuse=0 state=UP
=================================================================

Timings for individual modules:

Sum of individual times         ...     2526.590 sec (=  42.110 min)
GTO integral calculation        ...      184.554 sec (=   3.076 min)   7.3 %
SCF iterations                  ...     1797.067 sec (=  29.951 min)  71.1 %
SCF Gradient evaluation         ...      537.784 sec (=   8.963 min)  21.3 %
Geometry relaxation             ...        7.184 sec (=   0.120 min)   0.3 %
                             ****ORCA TERMINATED NORMALLY****
TOTAL RUN TIME: 0 days 0 hours 44 minutes 38 seconds 698 msec
