
                                 *****************
                                 * O   R   C   A *
                                 *****************

                                            #,                                       
                                            ###                                      
                                            ####                                     
                                            #####                                    
                                            ######                                   
                                           ########,                                 
                                     ,,################,,,,,                         
                               ,,#################################,,                 
                          ,,##########################################,,             
                       ,#########################################, ''#####,          
                    ,#############################################,,   '####,        
                  ,##################################################,,,,####,       
                ,###########''''           ''''###############################       
              ,#####''   ,,,,##########,,,,          '''####'''          '####       
            ,##' ,,,,###########################,,,                        '##       
           ' ,,###''''                  '''############,,,                           
         ,,##''                                '''############,,,,        ,,,,,,###''
      ,#''                                            '''#######################'''  
     '                                                          ''''####''''         
             ,#######,   #######,   ,#######,      ##                                
            ,#'     '#,  ##    ##  ,#'     '#,    #''#        ######   ,####,        
            ##       ##  ##   ,#'  ##            #'  '#       #        #'  '#        
            ##       ##  #######   ##           ,######,      #####,   #    #        
            '#,     ,#'  ##    ##  '#,     ,#' ,#      #,         ##   #,  ,#        
             '#######'   ##     ##  '#######'  #'      '#     #####' # '####'        



                  #######################################################
                  #                        -***-                        #
                  #          Department of theory and spectroscopy      #
                  #    Directorship and core code : Frank Neese         #
                  #        Max Planck Institute fuer Kohlenforschung    #
                  #                Kaiser Wilhelm Platz 1               #
                  #                 D-45470 Muelheim/Ruhr               #
                  #                      Germany                        #
                  #                                                     #
                  #                  All rights reserved                #
                  #                        -***-                        #
                  #######################################################


                         Program Version 5.0.1 -  RELEASE  -


 With contributions from (in alphabetic order):
   Daniel Aravena         : Magnetic Suceptibility
   Michael Atanasov       : Ab Initio Ligand Field Theory (pilot matlab implementation)
   Alexander A. Auer      : GIAO ZORA, VPT2 properties, NMR spectrum
   Ute Becker             : Parallelization
   Giovanni Bistoni       : ED, misc. LED, open-shell LED, HFLD
   Martin Brehm           : Molecular dynamics
   Dmytro Bykov           : SCF Hessian
   Vijay G. Chilkuri      : MRCI spin determinant printing, contributions to CSF-ICE
   Dipayan Datta          : RHF DLPNO-CCSD density
   Achintya Kumar Dutta   : EOM-CC, STEOM-CC
   Dmitry Ganyushin       : Spin-Orbit,Spin-Spin,Magnetic field MRCI
   Miquel Garcia          : C-PCM and meta-GGA Hessian, CC/C-PCM, Gaussian charge scheme
   Yang Guo               : DLPNO-NEVPT2, F12-NEVPT2, CIM, IAO-localization
   Andreas Hansen         : Spin unrestricted coupled pair/coupled cluster methods
   Benjamin Helmich-Paris : MC-RPA, TRAH-SCF, COSX integrals
   Lee Huntington         : MR-EOM, pCC
   Robert Izsak           : Overlap fitted RIJCOSX, COSX-SCS-MP3, EOM
   Marcus Kettner         : VPT2
   Christian Kollmar      : KDIIS, OOCD, Brueckner-CCSD(T), CCSD density, CASPT2, CASPT2-K
   Simone Kossmann        : Meta GGA functionals, TD-DFT gradient, OOMP2, MP2 Hessian
   Martin Krupicka        : Initial AUTO-CI
   Lucas Lang             : DCDCAS
   Marvin Lechner         : AUTO-CI (C++ implementation), FIC-MRCC
   Dagmar Lenk            : GEPOL surface, SMD
   Dimitrios Liakos       : Extrapolation schemes; Compound Job, initial MDCI parallelization
   Dimitrios Manganas     : Further ROCIS development; embedding schemes
   Dimitrios Pantazis     : SARC Basis sets
   Anastasios Papadopoulos: AUTO-CI, single reference methods and gradients
   Taras Petrenko         : DFT Hessian,TD-DFT gradient, ASA, ECA, R-Raman, ABS, FL, XAS/XES, NRVS
   Peter Pinski           : DLPNO-MP2, DLPNO-MP2 Gradient
   Christoph Reimann      : Effective Core Potentials
   Marius Retegan         : Local ZFS, SOC
   Christoph Riplinger    : Optimizer, TS searches, QM/MM, DLPNO-CCSD(T), (RO)-DLPNO pert. Triples
   Tobias Risthaus        : Range-separated hybrids, TD-DFT gradient, RPA, STAB
   Michael Roemelt        : Original ROCIS implementation
   Masaaki Saitow         : Open-shell DLPNO-CCSD energy and density
   Barbara Sandhoefer     : DKH picture change effects
   Avijit Sen             : IP-ROCIS
   Kantharuban Sivalingam : CASSCF convergence, NEVPT2, FIC-MRCI
   Bernardo de Souza      : ESD, SOC TD-DFT
   Georgi Stoychev        : AutoAux, RI-MP2 NMR, DLPNO-MP2 response
   Willem Van den Heuvel  : Paramagnetic NMR
   Boris Wezisla          : Elementary symmetry handling
   Frank Wennmohs         : Technical directorship


 We gratefully acknowledge several colleagues who have allowed us to
 interface, adapt or use parts of their codes:
   Stefan Grimme, W. Hujo, H. Kruse, P. Pracht,  : VdW corrections, initial TS optimization,
                  C. Bannwarth, S. Ehlert          DFT functionals, gCP, sTDA/sTD-DF
   Ed Valeev, F. Pavosevic, A. Kumar             : LibInt (2-el integral package), F12 methods
   Garnet Chan, S. Sharma, J. Yang, R. Olivares  : DMRG
   Ulf Ekstrom                                   : XCFun DFT Library
   Mihaly Kallay                                 : mrcc  (arbitrary order and MRCC methods)
   Jiri Pittner, Ondrej Demel                    : Mk-CCSD
   Frank Weinhold                                : gennbo (NPA and NBO analysis)
   Christopher J. Cramer and Donald G. Truhlar   : smd solvation model
   Lars Goerigk                                  : TD-DFT with DH, B97 family of functionals
   V. Asgeirsson, H. Jonsson                     : NEB implementation
   FAccTs GmbH                                   : IRC, NEB, NEB-TS, DLPNO-Multilevel, CI-OPT
                                                   MM, QMMM, 2- and 3-layer-ONIOM, Crystal-QMMM,
                                                   LR-CPCM, SF, NACMEs, symmetry and pop. for TD-DFT,
                                                   nearIR, NL-DFT gradient (VV10), updates on ESD,
                                                   ML-optimized integration grids
   S Lehtola, MJT Oliveira, MAL Marques          : LibXC Library
   Liviu Ungur et al                             : ANISO software


 Your calculation uses the libint2 library for the computation of 2-el integrals
 For citations please refer to: http://libint.valeyev.net

 Your ORCA version has been built with support for libXC version: 5.1.0
 For citations please refer to: https://tddft.org/programs/libxc/

 This ORCA versions uses:
   CBLAS   interface :  Fast vector & matrix operations
   LAPACKE interface :  Fast linear algebra routines
   SCALAPACK package :  Parallel linear algebra routines
   Shared memory     :  Shared parallel matrices
   BLAS/LAPACK       :  OpenBLAS 0.3.15  USE64BITINT DYNAMIC_ARCH NO_AFFINITY Zen SINGLE_THREADED
        Core in use  :  Zen
   Copyright (c) 2011-2014, The OpenBLAS Project


================================================================================

----- Orbital basis set information -----
Your calculation utilizes the basis: 6-31G(d)
   H-He, Li-Ne : W. J. Hehre, R. Ditchfield and J.A. Pople, J. Chem. Phys. 56, 2257 (1972).
                 Note: He and Ne are unpublished basis sets taken from the Gaussian program.
                 Note: Li and B from J. D. Dill and J. A. Pople, J. Chem. Phys. 62, 2921 (1975).
   Na - Ar     : M. M. Francl, W. J. Pietro, W. J. Hehre, J. S. Binkley, M. S. Gordon, 
                 D. J. DeFrees and J. A. Pople, J. Chem. Phys. 77, 3654 (1982).
   K - Zn      : V. A. Rassolov, J. A. Pople, M. A. Ratner, and T. L. Windus, J. Chem. Phys. 109, 1223 (1998).

----- AuxJ basis set information -----
Your calculation utilizes the auxiliary basis: def2/J
   F. Weigend, Phys. Chem. Chem. Phys. 8, 1057 (2006).

================================================================================
                                        WARNINGS
                       Please study these warnings very carefully!
================================================================================


WARNING: Geometry Optimization
  ===> : Switching off AutoStart
         For restart on a previous wavefunction, please use MOREAD

INFO   : the flag for use of the SHARK integral package has been found!

================================================================================
                                       INPUT FILE
================================================================================
NAME = compound_medoid_4/compound_medoid_4.inp
|  1> ! B3LYP 6-31G(d) Opt TightSCF
|  2> %pal
|  3>    nprocs 16
|  4> end
|  5> 
|  6> * xyz 0 1
|  7> O    2.667191   1.522983  -2.177705
|  8> C    3.092141   0.437234  -1.696188
|  9> C    2.302624  -0.815674  -1.980117
| 10> C    1.479397  -1.276756  -0.763130
| 11> C    0.410520  -0.254859  -0.301445
| 12> C   -0.282634  -0.732402   1.000581
| 13> C   -1.619237  -1.426134   0.702443
| 14> N   -2.591844  -0.521714   0.032412
| 15> C   -3.526671   0.084757   1.008681
| 16> C   -4.744707   0.730372   0.313858
| 17> C   -5.759369   1.275445   1.311436
| 18> C   -7.087200   1.291271   0.566475
| 19> C   -6.962907   0.281986  -0.574863
| 20> C   -5.536465  -0.255944  -0.538546
| 21> C   -1.954284   0.510206  -0.829233
| 22> C   -0.622405   0.032343  -1.419195
| 23> C    4.319135   0.445009  -0.850891
| 24> C    4.920790   1.686391  -0.499385
| 25> C    6.077138   1.732512   0.299375
| 26> C    6.616402   0.526946   0.734828
| 27> N    7.706103   0.348339   1.499244
| 28> C    7.832692  -0.989429   1.654363
| 29> C    6.816331  -1.662021   0.983546
| 30> C    6.051668  -0.672960   0.403843
| 31> C    4.907656  -0.758833  -0.385211
| 32> H    2.988714  -1.629094  -2.294836
| 33> H    1.628276  -0.645272  -2.846534
| 34> H    2.174972  -1.483621   0.078323
| 35> H    0.982960  -2.238956  -1.016395
| 36> H    0.928702   0.698799  -0.055981
| 37> H   -0.481793   0.144480   1.655262
| 38> H    0.370475  -1.420283   1.580599
| 39> H   -2.024107  -1.851732   1.647079
| 40> H   -1.431890  -2.297393   0.038403
| 41> H   -3.912012  -0.697675   1.700538
| 42> H   -3.002211   0.844698   1.630632
| 43> H   -4.411897   1.577063  -0.327226
| 44> H   -5.846725   0.602307   2.193600
| 45> H   -5.477407   2.293504   1.658278
| 46> H   -7.924132   1.023906   1.247920
| 47> H   -7.272482   2.307024   0.152454
| 48> H   -7.694069  -0.546572  -0.450613
| 49> H   -7.155159   0.784734  -1.548245
| 50> H   -5.538173  -1.265018  -0.068635
| 51> H   -5.109031  -0.334280  -1.561864
| 52> H   -2.636767   0.746478  -1.673223
| 53> H   -1.769517   1.453183  -0.265444
| 54> H   -0.815402  -0.882695  -2.022087
| 55> H   -0.225612   0.813263  -2.103672
| 56> H    4.494054   2.621647  -0.838895
| 57> H    6.531901   2.677589   0.566954
| 58> H    8.329849   1.086863   1.894262
| 59> H    8.622852  -1.458374   2.225688
| 60> H    6.661363  -2.731514   0.929957
| 61> H    4.502206  -1.732127  -0.621474
| 62> *
| 63> 
| 64>                          ****END OF INPUT****
================================================================================

                       *****************************
                       * Geometry Optimization Run *
                       *****************************

Geometry optimization settings:
Update method            Update   .... BFGS
Choice of coordinates    CoordSys .... Z-matrix Internals
Initial Hessian          InHess   .... Almoef's Model

Convergence Tolerances:
Energy Change            TolE     ....  5.0000e-06 Eh
Max. Gradient            TolMAXG  ....  3.0000e-04 Eh/bohr
RMS Gradient             TolRMSG  ....  1.0000e-04 Eh/bohr
Max. Displacement        TolMAXD  ....  4.0000e-03 bohr
RMS Displacement         TolRMSD  ....  2.0000e-03 bohr
Strict Convergence                ....  False
------------------------------------------------------------------------------
                        ORCA OPTIMIZATION COORDINATE SETUP
------------------------------------------------------------------------------

The optimization will be done in new redundant internal coordinates
Making redundant internal coordinates   ...  (new redundants) done
Evaluating the initial hessian          ...  (Almloef) done
Evaluating the coordinates              ...  done
Calculating the B-matrix                .... done
Calculating the G-matrix                .... done
Diagonalizing the G-matrix              .... done
Small eigenvalue found = 1.611e-03
Small eigenvalue found = 1.931e-03
Small eigenvalue found = 3.534e-03
Small eigenvalue found = 7.474e-03
Small eigenvalue found = 1.263e-02
Small eigenvalue found = 1.593e-02
Small eigenvalue found = 2.941e-02
The first mode is                       ....  186
The number of degrees of freedom        ....  159

    -----------------------------------------------------------------
                    Redundant Internal Coordinates


    -----------------------------------------------------------------
         Definition                    Initial Value    Approx d2E/dq
    -----------------------------------------------------------------
      1. B(C   1,O   0)                  1.2615         0.897317   
      2. B(C   2,C   1)                  1.5079         0.405185   
      3. B(C   3,C   2)                  1.5399         0.360205   
      4. B(C   4,C   3)                  1.5492         0.348173   
      5. B(C   5,C   4)                  1.5504         0.346585   
      6. B(C   6,C   5)                  1.5351         0.366586   
      7. B(N   7,C   6)                  1.4876         0.391021   
      8. B(C   8,N   7)                  1.4815         0.399862   
      9. B(C   9,C   8)                  1.5438         0.355154   
     10. B(C  10,C   9)                  1.5237         0.382255   
     11. B(C  11,C  10)                  1.5226         0.383850   
     12. B(C  12,C  11)                  1.5286         0.375438   
     13. B(C  13,C  12)                  1.5249         0.380592   
     14. B(C  13,C   9)                  1.5252         0.380194   
     15. B(C  14,N   7)                  1.4879         0.390590   
     16. B(C  15,C  14)                  1.5331         0.369382   
     17. B(C  15,C   4)                  1.5488         0.348644   
     18. B(C  16,C   1)                  1.4900         0.432707   
     19. B(C  17,C  16)                  1.4236         0.552290   
     20. B(C  18,C  17)                  1.4062         0.588785   
     21. B(C  19,C  18)                  1.3906         0.623383   
     22. B(N  20,C  19)                  1.3430         0.665032   
     23. B(C  21,N  20)                  1.3527         0.641855   
     24. B(C  22,C  21)                  1.3912         0.622108   
     25. B(C  23,C  22)                  1.3780         0.652849   
     26. B(C  23,C  19)                  1.3668         0.680283   
     27. B(C  24,C  23)                  1.3924         0.619340   
     28. B(C  24,C  16)                  1.4186         0.562465   
     29. B(H  25,C   2)                  1.1097         0.334968   
     30. B(H  26,C   2)                  1.1111         0.333287   
     31. B(H  27,C   3)                  1.1112         0.333177   
     32. B(H  28,C   3)                  1.1119         0.332209   
     33. B(H  29,C   4)                  1.1128         0.331219   
     34. B(H  30,C   5)                  1.1123         0.331786   
     35. B(H  31,C   5)                  1.1118         0.332357   
     36. B(H  32,C   6)                  1.1124         0.331678   
     37. B(H  33,C   6)                  1.1114         0.332913   
     38. B(H  34,C   8)                  1.1133         0.330605   
     39. B(H  35,C   8)                  1.1133         0.330584   
     40. B(H  36,C   9)                  1.1129         0.330996   
     41. B(H  37,C  10)                  1.1131         0.330820   
     42. B(H  38,C  10)                  1.1119         0.332305   
     43. B(H  39,C  11)                  1.1119         0.332272   
     44. B(H  40,C  11)                  1.1124         0.331619   
     45. B(H  41,C  12)                  1.1120         0.332142   
     46. B(H  42,C  12)                  1.1123         0.331788   
     47. B(H  43,C  13)                  1.1131         0.330771   
     48. B(H  44,C  13)                  1.1118         0.332432   
     49. B(H  45,C  14)                  1.1108         0.333582   
     50. B(H  46,C  14)                  1.1141         0.329598   
     51. B(H  47,C  15)                  1.1127         0.331333   
     52. B(H  48,C  15)                  1.1117         0.332556   
     53. B(H  49,C  17)                  1.0826         0.369991   
     54. B(H  50,C  18)                  1.0824         0.370303   
     55. B(H  51,N  20)                  1.0443         0.381511   
     56. B(H  52,C  21)                  1.0820         0.370871   
     57. B(H  53,C  22)                  1.0820         0.370854   
     58. B(H  54,C  24)                  1.0805         0.372870   
     59. A(O   0,C   1,C  16)          119.3056         0.432005   
     60. A(C   2,C   1,C  16)          122.8422         0.377892   
     61. A(O   0,C   1,C   2)          117.8335         0.426940   
     62. A(C   1,C   2,H  25)          109.8004         0.324792   
     63. A(C   1,C   2,H  26)          109.7057         0.324524   
     64. A(C   3,C   2,H  25)          109.5833         0.318595   
     65. A(C   1,C   2,C   3)          112.3266         0.366146   
     66. A(C   3,C   2,H  26)          109.7389         0.318334   
     67. A(H  25,C   2,H  26)          105.4569         0.284114   
     68. A(C   2,C   3,C   4)          114.0080         0.356795   
     69. A(C   4,C   3,H  27)          109.2103         0.316560   
     70. A(C   2,C   3,H  28)          108.5279         0.318166   
     71. A(H  27,C   3,H  28)          106.9097         0.283735   
     72. A(C   4,C   3,H  28)          109.3080         0.316410   
     73. A(C   2,C   3,H  27)          108.6366         0.318317   
     74. A(C   3,C   4,H  29)          108.0453         0.316257   
     75. A(C   3,C   4,C  15)          111.5551         0.354825   
     76. A(C  15,C   4,H  29)          108.1100         0.316326   
     77. A(C   3,C   4,C   5)          110.8283         0.354469   
     78. A(C   5,C   4,H  29)          106.6732         0.316022   
     79. A(C   5,C   4,C  15)          111.4088         0.354550   
     80. A(H  30,C   5,H  31)          106.6113         0.283570   
     81. A(C   4,C   5,H  30)          109.3611         0.316110   
     82. A(C   4,C   5,H  31)          111.4720         0.316198   
     83. A(C   6,C   5,H  31)          109.4617         0.319101   
     84. A(C   6,C   5,H  30)          108.3410         0.319012   
     85. A(C   4,C   5,C   6)          111.4292         0.357584   
     86. A(N   7,C   6,H  33)          108.5252         0.320653   
     87. A(N   7,C   6,H  32)          112.1567         0.320458   
     88. A(C   5,C   6,H  32)          108.9578         0.318995   
     89. A(C   5,C   6,N   7)          112.4570         0.362747   
     90. A(H  32,C   6,H  33)          105.5935         0.283629   
     91. A(C   5,C   6,H  33)          108.8769         0.319189   
     92. A(C   6,N   7,C   8)          111.3851         0.365886   
     93. A(C   8,N   7,C  14)          111.5980         0.365817   
     94. A(C   6,N   7,C  14)          113.7249         0.364420   
     95. A(C   9,C   8,H  34)          107.4899         0.317184   
     96. A(N   7,C   8,H  34)          109.8911         0.321462   
     97. A(C   9,C   8,H  35)          109.7348         0.317181   
     98. A(N   7,C   8,H  35)          110.5072         0.321459   
     99. A(H  34,C   8,H  35)          107.1954         0.283178   
    100. A(N   7,C   8,C   9)          111.8680         0.362170   
    101. A(C  13,C   9,H  36)          108.9822         0.320792   
    102. A(C  10,C   9,C  13)          104.5686         0.365880   
    103. A(C   8,C   9,C  13)          112.9966         0.361310   
    104. A(C   8,C   9,C  10)          112.3544         0.361643   
    105. A(C  10,C   9,H  36)          107.7043         0.321076   
    106. A(C   8,C   9,H  36)          109.9670         0.317245   
    107. A(C   9,C  10,C  11)          105.3144         0.366480   
    108. A(H  37,C  10,H  38)          109.0504         0.283435   
    109. A(C  11,C  10,H  38)          111.3620         0.321503   
    110. A(C   9,C  10,H  38)          111.2783         0.321284   
    111. A(C  11,C  10,H  37)          109.0023         0.321267   
    112. A(C   9,C  10,H  37)          110.7809         0.321048   
    113. A(C  10,C  11,C  12)          106.7102         0.365353   
    114. A(H  39,C  11,H  40)          108.8015         0.283537   
    115. A(C  12,C  11,H  40)          109.7874         0.320231   
    116. A(C  10,C  11,H  40)          109.6841         0.321394   
    117. A(C  12,C  11,H  39)          111.1019         0.320334   
    118. A(C  10,C  11,H  39)          110.7360         0.321497   
    119. A(C  11,C  12,C  13)          106.9288         0.364820   
    120. A(C  13,C  12,H  42)          109.9966         0.320973   
    121. A(H  41,C  12,H  42)          108.7184         0.283542   
    122. A(C  11,C  12,H  42)          109.9323         0.320258   
    123. A(C  13,C  12,H  41)          110.4598         0.321029   
    124. A(C  11,C  12,H  41)          110.7975         0.320314   
    125. A(C   9,C  13,C  12)          105.7104         0.365607   
    126. A(H  43,C  13,H  44)          108.9829         0.283445   
    127. A(C   9,C  13,H  44)          111.1246         0.321020   
    128. A(C  12,C  13,H  44)          111.2580         0.321074   
    129. A(C  12,C  13,H  43)          109.1717         0.320811   
    130. A(C   9,C  13,H  43)          110.5539         0.320757   
    131. A(H  45,C  14,H  46)          107.8398         0.283441   
    132. A(C  15,C  14,H  46)          108.3299         0.319063   
    133. A(N   7,C  14,H  46)          111.4096         0.320072   
    134. A(C  15,C  14,H  45)          107.9194         0.319690   
    135. A(N   7,C  14,H  45)          108.9202         0.320701   
    136. A(N   7,C  14,C  15)          112.2682         0.363150   
    137. A(H  47,C  15,H  48)          107.8180         0.283536   
    138. A(C   4,C  15,H  48)          109.6685         0.316534   
    139. A(C  14,C  15,H  48)          109.1519         0.319529   
    140. A(C  14,C  15,H  47)          108.3103         0.319337   
    141. A(C   4,C  15,H  47)          110.7459         0.316344   
    142. A(C   4,C  15,C  14)          111.0679         0.358407   
    143. A(C   1,C  16,C  17)          119.5158         0.398871   
    144. A(C  17,C  16,C  24)          118.9215         0.417822   
    145. A(C   1,C  16,C  24)          121.5627         0.400154   
    146. A(C  18,C  17,H  49)          118.2907         0.351446   
    147. A(C  16,C  17,C  18)          121.0920         0.421244   
    148. A(C  16,C  17,H  49)          120.6168         0.347672   
    149. A(C  17,C  18,C  19)          117.9263         0.430475   
    150. A(C  19,C  18,H  50)          121.1050         0.354910   
    151. A(C  17,C  18,H  50)          120.9686         0.351496   
    152. A(N  20,C  19,C  23)          110.8744         0.444081   
    153. A(C  18,C  19,C  23)          121.6684         0.441824   
    154. A(C  18,C  19,N  20)          127.4573         0.437129   
    155. A(C  19,N  20,C  21)          105.8268         0.436554   
    156. A(C  19,N  20,H  51)          127.2930         0.355284   
    157. A(C  21,N  20,H  51)          126.8802         0.353154   
    158. A(N  20,C  21,C  22)          110.7615         0.434186   
    159. A(C  22,C  21,H  52)          125.3528         0.354879   
    160. A(N  20,C  21,H  52)          123.8857         0.354563   
    161. A(C  23,C  22,H  53)          127.5266         0.357795   
    162. A(C  21,C  22,H  53)          127.3301         0.354877   
    163. A(C  21,C  22,C  23)          105.1434         0.438390   
    164. A(C  22,C  23,C  24)          130.5442         0.438038   
    165. A(C  19,C  23,C  24)          122.0618         0.441305   
    166. A(C  19,C  23,C  22)          107.3940         0.445531   
    167. A(C  23,C  24,H  54)          119.1939         0.354935   
    168. A(C  16,C  24,H  54)          122.4763         0.349199   
    169. A(C  16,C  24,C  23)          118.3297         0.426461   
    170. D(H  26,C   2,C   1,C  16)   -163.5365         0.012171   
    171. D(H  26,C   2,C   1,O   0)     18.0469         0.012171   
    172. D(C   3,C   2,C   1,C  16)     74.1261         0.012171   
    173. D(H  25,C   2,C   1,O   0)    133.5036         0.012171   
    174. D(H  25,C   2,C   1,C  16)    -48.0797         0.012171   
    175. D(C   3,C   2,C   1,O   0)   -104.2906         0.012171   
    176. D(H  28,C   3,C   2,C   1)   -175.9880         0.010409   
    177. D(H  27,C   3,C   2,H  26)    177.5909         0.010409   
    178. D(H  28,C   3,C   2,H  25)    -53.6592         0.010409   
    179. D(C   4,C   3,C   2,C   1)     61.9379         0.010409   
    180. D(C   4,C   3,C   2,H  26)    -60.3807         0.010409   
    181. D(H  27,C   3,C   2,H  25)     62.2384         0.010409   
    182. D(C   4,C   3,C   2,H  25)   -175.7332         0.010409   
    183. D(H  27,C   3,C   2,C   1)    -60.0905         0.010409   
    184. D(H  28,C   3,C   2,H  26)     61.6933         0.010409   
    185. D(C   5,C   4,C   3,H  28)     63.5842         0.009775   
    186. D(H  29,C   4,C   3,H  28)   -179.8775         0.009775   
    187. D(H  29,C   4,C   3,H  27)     63.4784         0.009775   
    188. D(C  15,C   4,C   3,C   2)     60.4649         0.009775   
    189. D(C  15,C   4,C   3,H  27)   -177.8231         0.009775   
    190. D(H  29,C   4,C   3,C   2)    -58.2337         0.009775   
    191. D(C   5,C   4,C   3,C   2)   -174.7720         0.009775   
    192. D(C   5,C   4,C   3,H  27)    -53.0599         0.009775   
    193. D(C  15,C   4,C   3,H  28)    -61.1789         0.009775   
    194. D(H  30,C   5,C   4,H  29)     25.2823         0.009693   
    195. D(H  31,C   5,C   4,C   3)     25.0293         0.009693   
    196. D(H  30,C   5,C   4,C   3)    142.6639         0.009693   
    197. D(C   6,C   5,C   4,C   3)    -97.5859         0.009693   
    198. D(C   6,C   5,C   4,H  29)    145.0325         0.009693   
    199. D(C   6,C   5,C   4,C  15)     27.2600         0.009693   
    200. D(H  30,C   5,C   4,C  15)    -92.4901         0.009693   
    201. D(H  31,C   5,C   4,H  29)    -92.3522         0.009693   
    202. D(H  31,C   5,C   4,C  15)    149.8753         0.009693   
    203. D(H  33,C   6,C   5,H  31)    -64.7800         0.010755   
    204. D(H  33,C   6,C   5,H  30)    179.3346         0.010755   
    205. D(H  33,C   6,C   5,C   4)     58.9824         0.010755   
    206. D(H  32,C   6,C   5,H  31)     49.9181         0.010755   
    207. D(H  32,C   6,C   5,H  30)    -65.9673         0.010755   
    208. D(H  32,C   6,C   5,C   4)    173.6805         0.010755   
    209. D(N   7,C   6,C   5,H  31)    174.9110         0.010755   
    210. D(N   7,C   6,C   5,H  30)     59.0256         0.010755   
    211. D(N   7,C   6,C   5,C   4)    -61.3266         0.010755   
    212. D(C  14,N   7,C   6,H  33)    -89.8433         0.013068   
    213. D(C  14,N   7,C   6,H  32)    153.8897         0.013068   
    214. D(C  14,N   7,C   6,C   5)     30.6686         0.013068   
    215. D(C   8,N   7,C   6,H  33)    143.0067         0.013068   
    216. D(C   8,N   7,C   6,C   5)    -96.4814         0.013068   
    217. D(C   8,N   7,C   6,H  32)     26.7397         0.013068   
    218. D(H  35,C   8,N   7,C  14)    -56.4958         0.013651   
    219. D(H  34,C   8,N   7,C  14)   -174.5943         0.013651   
    220. D(C   9,C   8,N   7,C  14)     66.0913         0.013651   
    221. D(C   9,C   8,N   7,C   6)   -165.6106         0.013651   
    222. D(H  34,C   8,N   7,C   6)    -46.2962         0.013651   
    223. D(H  35,C   8,N   7,C   6)     71.8023         0.013651   
    224. D(C  13,C   9,C   8,H  35)   -178.8364         0.010139   
    225. D(H  36,C   9,C   8,N   7)    -63.8781         0.010139   
    226. D(C  13,C   9,C   8,H  34)    -62.5830         0.010139   
    227. D(C  13,C   9,C   8,N   7)     58.1376         0.010139   
    228. D(H  36,C   9,C   8,H  35)     59.1480         0.010139   
    229. D(H  36,C   9,C   8,H  34)    175.4014         0.010139   
    230. D(C  10,C   9,C   8,H  35)    -60.8027         0.010139   
    231. D(C  10,C   9,C   8,H  34)     55.4506         0.010139   
    232. D(C  10,C   9,C   8,N   7)    176.1712         0.010139   
    233. D(H  38,C  10,C   9,H  36)    -37.6238         0.011639   
    234. D(H  38,C  10,C   9,C   8)     83.6320         0.011639   
    235. D(H  37,C  10,C   9,H  36)   -159.1200         0.011639   
    236. D(H  37,C  10,C   9,C  13)     85.0467         0.011639   
    237. D(H  37,C  10,C   9,C   8)    -37.8642         0.011639   
    238. D(C  11,C  10,C   9,H  36)     83.1697         0.011639   
    239. D(H  38,C  10,C   9,C  13)   -153.4571         0.011639   
    240. D(C  11,C  10,C   9,C  13)    -32.6636         0.011639   
    241. D(C  11,C  10,C   9,C   8)   -155.5745         0.011639   
    242. D(H  40,C  11,C  10,H  38)     24.1043         0.011731   
    243. D(H  40,C  11,C  10,H  37)    144.4605         0.011731   
    244. D(H  40,C  11,C  10,C   9)    -96.6343         0.011731   
    245. D(H  39,C  11,C  10,H  38)    -95.9908         0.011731   
    246. D(H  39,C  11,C  10,H  37)     24.3654         0.011731   
    247. D(H  39,C  11,C  10,C   9)    143.2706         0.011731   
    248. D(C  12,C  11,C  10,H  38)    142.9721         0.011731   
    249. D(C  12,C  11,C  10,H  37)    -96.6718         0.011731   
    250. D(C  12,C  11,C  10,C   9)     22.2335         0.011731   
    251. D(H  42,C  12,C  11,H  40)     -3.8346         0.011249   
    252. D(H  42,C  12,C  11,H  39)    116.5613         0.011249   
    253. D(H  42,C  12,C  11,C  10)   -122.6350         0.011249   
    254. D(H  41,C  12,C  11,H  40)   -124.0261         0.011249   
    255. D(H  41,C  12,C  11,H  39)     -3.6302         0.011249   
    256. D(H  41,C  12,C  11,C  10)    117.1734         0.011249   
    257. D(C  13,C  12,C  11,H  40)    115.5458         0.011249   
    258. D(C  13,C  12,C  11,H  39)   -124.0583         0.011249   
    259. D(C  13,C  12,C  11,C  10)     -3.2546         0.011249   
    260. D(H  44,C  13,C  12,H  42)    -18.3621         0.011543   
    261. D(H  44,C  13,C  12,C  11)   -137.7009         0.011543   
    262. D(H  43,C  13,C  12,H  42)   -138.6796         0.011543   
    263. D(H  43,C  13,C  12,H  41)    -18.6620         0.011543   
    264. D(C   9,C  13,C  12,H  42)    102.3783         0.011543   
    265. D(C   9,C  13,C  12,H  41)   -137.6041         0.011543   
    266. D(C   9,C  13,C  12,C  11)    -16.9606         0.011543   
    267. D(H  44,C  13,C   9,H  36)     36.5289         0.011520   
    268. D(H  44,C  13,C   9,C  10)    151.4693         0.011520   
    269. D(H  44,C  13,C   9,C   8)    -86.0378         0.011520   
    270. D(H  43,C  13,C   9,H  36)    157.6801         0.011520   
    271. D(H  43,C  13,C  12,C  11)    101.9815         0.011543   
    272. D(H  43,C  13,C   9,C  10)    -87.3795         0.011520   
    273. D(H  43,C  13,C   9,C   8)     35.1134         0.011520   
    274. D(C  12,C  13,C   9,H  36)    -84.2982         0.011520   
    275. D(H  44,C  13,C  12,H  41)    101.6555         0.011543   
    276. D(C  12,C  13,C   9,C  10)     30.6422         0.011520   
    277. D(C  12,C  13,C   9,C   8)    153.1351         0.011520   
    278. D(H  46,C  14,N   7,C   8)     34.9303         0.013040   
    279. D(H  46,C  14,N   7,C   6)    -92.1089         0.013040   
    280. D(H  45,C  14,N   7,C   8)    -83.9024         0.013040   
    281. D(H  45,C  14,N   7,C   6)    149.0584         0.013040   
    282. D(C  15,C  14,N   7,C   8)    156.6372         0.013040   
    283. D(C  15,C  14,N   7,C   6)     29.5981         0.013040   
    284. D(C   4,C  15,C  14,H  46)     60.8175         0.010910   
    285. D(C   4,C  15,C  14,H  45)    177.3250         0.010910   
    286. D(C   4,C  15,C  14,N   7)    -62.6315         0.010910   
    287. D(H  48,C  15,C   4,H  29)     34.5612         0.009799   
    288. D(H  48,C  15,C   4,C   5)    151.4631         0.009799   
    289. D(H  48,C  15,C   4,C   3)    -84.0987         0.009799   
    290. D(H  47,C  15,C   4,H  29)    153.4345         0.009799   
    291. D(H  47,C  15,C   4,C   5)    -89.6636         0.009799   
    292. D(H  47,C  15,C   4,C   3)     34.7745         0.009799   
    293. D(C  14,C  15,C   4,H  29)    -86.1726         0.009799   
    294. D(C  14,C  15,C   4,C   5)     30.7293         0.009799   
    295. D(H  47,C  15,C  14,N   7)     59.1931         0.010910   
    296. D(C  14,C  15,C   4,C   3)    155.1675         0.009799   
    297. D(H  48,C  15,C  14,H  46)    -60.2205         0.010910   
    298. D(H  48,C  15,C  14,H  45)     56.2869         0.010910   
    299. D(H  48,C  15,C  14,N   7)    176.3304         0.010910   
    300. D(H  47,C  15,C  14,H  46)   -177.3579         0.010910   
    301. D(H  47,C  15,C  14,H  45)    -60.8504         0.010910   
    302. D(C  24,C  16,C   1,C   2)      7.3773         0.012788   
    303. D(C  24,C  16,C   1,O   0)   -174.2283         0.012788   
    304. D(C  17,C  16,C   1,C   2)   -172.6702         0.012788   
    305. D(C  17,C  16,C   1,O   0)      5.7241         0.012788   
    306. D(H  49,C  17,C  16,C  24)   -179.9344         0.020872   
    307. D(H  49,C  17,C  16,C   1)      0.1119         0.020872   
    308. D(C  18,C  17,C  16,C  24)     -0.2070         0.020872   
    309. D(C  18,C  17,C  16,C   1)    179.8393         0.020872   
    310. D(H  50,C  18,C  17,H  49)     -0.1525         0.023852   
    311. D(H  50,C  18,C  17,C  16)   -179.8860         0.023852   
    312. D(C  19,C  18,C  17,H  49)    179.7969         0.023852   
    313. D(C  19,C  18,C  17,C  16)      0.0633         0.023852   
    314. D(C  23,C  19,C  18,H  50)   -179.9986         0.026908   
    315. D(C  23,C  19,C  18,C  17)      0.0522         0.026908   
    316. D(N  20,C  19,C  18,H  50)     -0.0375         0.026908   
    317. D(N  20,C  19,C  18,C  17)   -179.9867         0.026908   
    318. D(H  51,N  20,C  19,C  23)    179.9921         0.036241   
    319. D(H  51,N  20,C  19,C  18)      0.0275         0.036241   
    320. D(C  21,N  20,C  19,C  23)      0.0033         0.036241   
    321. D(C  21,N  20,C  19,C  18)   -179.9613         0.036241   
    322. D(H  52,C  21,N  20,H  51)      0.0082         0.033549   
    323. D(H  52,C  21,N  20,C  19)    179.9970         0.033549   
    324. D(C  22,C  21,N  20,H  51)   -179.9850         0.033549   
    325. D(C  22,C  21,N  20,C  19)      0.0038         0.033549   
    326. D(H  53,C  22,C  21,H  52)      0.0076         0.026792   
    327. D(H  53,C  22,C  21,N  20)   -179.9994         0.026792   
    328. D(C  23,C  22,C  21,H  52)    179.9978         0.026792   
    329. D(C  23,C  22,C  21,N  20)     -0.0092         0.026792   
    330. D(C  24,C  23,C  22,H  53)     -0.0236         0.029694   
    331. D(C  24,C  23,C  22,C  21)    179.9862         0.029694   
    332. D(C  19,C  23,C  22,H  53)   -179.9991         0.029694   
    333. D(C  19,C  23,C  22,C  21)      0.0108         0.029694   
    334. D(C  24,C  23,C  19,N  20)   -179.9871         0.032442   
    335. D(C  24,C  23,C  19,C  18)     -0.0201         0.032442   
    336. D(C  22,C  23,C  19,N  20)     -0.0091         0.032442   
    337. D(C  22,C  23,C  19,C  18)    179.9579         0.032442   
    338. D(H  54,C  24,C  23,C  22)     -0.1861         0.026539   
    339. D(H  54,C  24,C  23,C  19)    179.7862         0.026539   
    340. D(C  16,C  24,C  23,C  22)    179.9018         0.026539   
    341. D(C  16,C  24,C  23,C  19)     -0.1258         0.026539   
    342. D(H  54,C  24,C  16,C  17)   -179.6753         0.021678   
    343. D(H  54,C  24,C  16,C   1)      0.2774         0.021678   
    344. D(C  23,C  24,C  16,C  17)      0.2337         0.021678   
    345. D(C  23,C  24,C  16,C   1)   -179.8136         0.021678   
    -----------------------------------------------------------------

Number of atoms                         .... 55
Number of degrees of freedom            .... 345

         *************************************************************
         *                GEOMETRY OPTIMIZATION CYCLE   1            *
         *************************************************************
---------------------------------
CARTESIAN COORDINATES (ANGSTROEM)
---------------------------------
  O      2.667191    1.522983   -2.177705
  C      3.092141    0.437234   -1.696188
  C      2.302624   -0.815674   -1.980117
  C      1.479397   -1.276756   -0.763130
  C      0.410520   -0.254859   -0.301445
  C     -0.282634   -0.732402    1.000581
  C     -1.619237   -1.426134    0.702443
  N     -2.591844   -0.521714    0.032412
  C     -3.526671    0.084757    1.008681
  C     -4.744707    0.730372    0.313858
  C     -5.759369    1.275445    1.311436
  C     -7.087200    1.291271    0.566475
  C     -6.962907    0.281986   -0.574863
  C     -5.536465   -0.255944   -0.538546
  C     -1.954284    0.510206   -0.829233
  C     -0.622405    0.032343   -1.419195
  C      4.319135    0.445009   -0.850891
  C      4.920790    1.686391   -0.499385
  C      6.077138    1.732512    0.299375
  C      6.616402    0.526946    0.734828
  N      7.706103    0.348339    1.499244
  C      7.832692   -0.989429    1.654363
  C      6.816331   -1.662021    0.983546
  C      6.051668   -0.672960    0.403843
  C      4.907656   -0.758833   -0.385211
  H      2.988714   -1.629094   -2.294836
  H      1.628276   -0.645272   -2.846534
  H      2.174972   -1.483621    0.078323
  H      0.982960   -2.238956   -1.016395
  H      0.928702    0.698799   -0.055981
  H     -0.481793    0.144480    1.655262
  H      0.370475   -1.420283    1.580599
  H     -2.024107   -1.851732    1.647079
  H     -1.431890   -2.297393    0.038403
  H     -3.912012   -0.697675    1.700538
  H     -3.002211    0.844698    1.630632
  H     -4.411897    1.577063   -0.327226
  H     -5.846725    0.602307    2.193600
  H     -5.477407    2.293504    1.658278
  H     -7.924132    1.023906    1.247920
  H     -7.272482    2.307024    0.152454
  H     -7.694069   -0.546572   -0.450613
  H     -7.155159    0.784734   -1.548245
  H     -5.538173   -1.265018   -0.068635
  H     -5.109031   -0.334280   -1.561864
  H     -2.636767    0.746478   -1.673223
  H     -1.769517    1.453183   -0.265444
  H     -0.815402   -0.882695   -2.022087
  H     -0.225612    0.813263   -2.103672
  H      4.494054    2.621647   -0.838895
  H      6.531901    2.677589    0.566954
  H      8.329849    1.086863    1.894262
  H      8.622852   -1.458374    2.225688
  H      6.661363   -2.731514    0.929957
  H      4.502206   -1.732127   -0.621474

----------------------------
CARTESIAN COORDINATES (A.U.)
----------------------------
  NO LB      ZA    FRAG     MASS         X           Y           Z
   0 O     8.0000    0    15.999    5.040261    2.878021   -4.115266
   1 C     6.0000    0    12.011    5.843300    0.826253   -3.205331
   2 C     6.0000    0    12.011    4.351329   -1.541400   -3.741879
   3 C     6.0000    0    12.011    2.795655   -2.412719   -1.442107
   4 C     6.0000    0    12.011    0.775770   -0.481614   -0.569648
   5 C     6.0000    0    12.011   -0.534101   -1.384039    1.890824
   6 C     6.0000    0    12.011   -3.059914   -2.695003    1.327425
   7 N     7.0000    0    14.007   -4.897875   -0.985897    0.061250
   8 C     6.0000    0    12.011   -6.664442    0.160168    1.906131
   9 C     6.0000    0    12.011   -8.966197    1.380203    0.593106
  10 C     6.0000    0    12.011  -10.883630    2.410242    2.478255
  11 C     6.0000    0    12.011  -13.392867    2.440149    1.070483
  12 C     6.0000    0    12.011  -13.157987    0.532876   -1.086334
  13 C     6.0000    0    12.011  -10.462403   -0.483664   -1.017704
  14 C     6.0000    0    12.011   -3.693062    0.964150   -1.567023
  15 C     6.0000    0    12.011   -1.176175    0.061119   -2.681890
  16 C     6.0000    0    12.011    8.161982    0.840945   -1.607951
  17 C     6.0000    0    12.011    9.298945    3.186817   -0.943701
  18 C     6.0000    0    12.011   11.484126    3.273973    0.565737
  19 C     6.0000    0    12.011   12.503188    0.995784    1.388624
  20 N     7.0000    0    14.007   14.562424    0.658265    2.833161
  21 C     6.0000    0    12.011   14.801643   -1.869750    3.126293
  22 C     6.0000    0    12.011   12.880999   -3.140765    1.858633
  23 C     6.0000    0    12.011   11.435995   -1.271710    0.763153
  24 C     6.0000    0    12.011    9.274126   -1.433987   -0.727943
  25 H     1.0000    0     1.008    5.647851   -3.078542   -4.336612
  26 H     1.0000    0     1.008    3.076996   -1.219387   -5.379170
  27 H     1.0000    0     1.008    4.110101   -2.803637    0.148009
  28 H     1.0000    0     1.008    1.857525   -4.231014   -1.920708
  29 H     1.0000    0     1.008    1.754992    1.320539   -0.105789
  30 H     1.0000    0     1.008   -0.910457    0.273028    3.127992
  31 H     1.0000    0     1.008    0.700096   -2.683946    2.986899
  32 H     1.0000    0     1.008   -3.825008   -3.499266    3.112528
  33 H     1.0000    0     1.008   -2.705880   -4.341444    0.072571
  34 H     1.0000    0     1.008   -7.392631   -1.318415    3.213551
  35 H     1.0000    0     1.008   -5.673357    1.596248    3.081448
  36 H     1.0000    0     1.008   -8.337277    2.980217   -0.618368
  37 H     1.0000    0     1.008  -11.048709    1.138195    4.145303
  38 H     1.0000    0     1.008  -10.350799    4.334094    3.133691
  39 H     1.0000    0     1.008  -14.974439    1.934902    2.358227
  40 H     1.0000    0     1.008  -13.742999    4.359644    0.288096
  41 H     1.0000    0     1.008  -14.539683   -1.032871   -0.851535
  42 H     1.0000    0     1.008  -13.521291    1.482932   -2.925759
  43 H     1.0000    0     1.008  -10.465630   -2.390538   -0.129701
  44 H     1.0000    0     1.008   -9.654669   -0.631698   -2.951495
  45 H     1.0000    0     1.008   -4.982768    1.410639   -3.161933
  46 H     1.0000    0     1.008   -3.343903    2.746118   -0.501616
  47 H     1.0000    0     1.008   -1.540886   -1.668052   -3.821191
  48 H     1.0000    0     1.008   -0.426345    1.536844   -3.975364
  49 H     1.0000    0     1.008    8.492531    4.954195   -1.585282
  50 H     1.0000    0     1.008   12.343504    5.059910    1.071388
  51 H     1.0000    0     1.008   15.741133    2.053873    3.579636
  52 H     1.0000    0     1.008   16.294829   -2.755927    4.205941
  53 H     1.0000    0     1.008   12.588152   -5.161813    1.757364
  54 H     1.0000    0     1.008    8.507936   -3.273246   -1.174416

--------------------------------
INTERNAL COORDINATES (ANGSTROEM)
--------------------------------
 O      0   0   0     0.000000000000     0.00000000     0.00000000
 C      1   0   0     1.261464234447     0.00000000     0.00000000
 C      2   1   0     1.507889660020   117.83354267     0.00000000
 C      3   2   1     1.539920992266   112.32662381   255.70944150
 C      4   3   2     1.549168989802   114.00801027    61.93792739
 C      5   4   3     1.550413328516   110.82827720   185.22803159
 C      6   5   4     1.535141014525   111.42923986   262.41406298
 N      7   6   5     1.487575696834   112.45697484   298.67338137
 C      8   7   6     1.481489032741   111.38514416   263.51856420
 C      9   8   7     1.543764692837   111.86804091   194.38937386
 C     10   9   8     1.523747162641   112.35436377   176.17120869
 C     11  10   9     1.522613712784   105.31441848   204.42549849
 C     12  11  10     1.528645606842   106.71020543    22.23346835
 C     13  12  11     1.524934224402   106.92877914   356.74542147
 C      8   7   6     1.487875581500   113.72489610    30.66857640
 C     15   8   7     1.533072039682   112.26815613    29.59805650
 C      2   1   3     1.490000585527   119.30557936   181.52549046
 C     17   2   1     1.423578054406   119.51584019     5.72409867
 C     18  17   2     1.406159799363   121.09198101   179.83925477
 C     19  18  17     1.390616538540   117.92632176     0.06331627
 N     20  19  18     1.343011746377   127.45727115   180.01327130
 C     21  20  19     1.352667697887   105.82677468   180.03873754
 C     22  21  20     1.391174010782   110.76146001     0.00000000
 C     20  19  18     1.366839408935   121.66835903     0.05218021
 C     24  20  19     1.392387820684   122.06180106     0.00000000
 H      3   2   1     1.109693486266   109.80036307   133.50360203
 H      3   2   1     1.111062772573   109.70567260    18.04688601
 H      4   3   2     1.111152941795   108.63659226   299.90950376
 H      4   3   2     1.111945005472   108.52788061   184.01195117
 H      5   4   3     1.112757269751   108.04529161   301.76632242
 H      6   5   4     1.112292030434   109.36107102   142.66387630
 H      6   5   4     1.111823959252   111.47200294    25.02934029
 H      7   6   5     1.112380576511   108.95775864   173.68048372
 H      7   6   5     1.111368645000   108.87690323    58.98242801
 H      9   8   7     1.113262605747   109.89113517   313.70379809
 H      9   8   7     1.113279686998   110.50716473    71.80229766
 H     10   9   8     1.112940627633   109.96702215   296.12194694
 H     11  10   9     1.113085423800   110.78091661   322.13584640
 H     11  10   9     1.111866030549   111.27826175    83.63199535
 H     12  11  10     1.111893207046   110.73603050   143.27063944
 H     12  11  10     1.112428408921   109.68406456   263.36569488
 H     13  12  11     1.112000131344   110.79753250   117.17344822
 H     13  12  11     1.112289935643   109.93225346   237.36498485
 H     14  13  12     1.113126049763   109.17168928   101.98152191
 H     14  13  12     1.111762601627   111.25799749   222.29907402
 H     15   8   7     1.110822498590   108.92015862   149.05843229
 H     15   8   7     1.114092681665   111.40964242   267.89114117
 H     16  15   8     1.112663986618   108.31029748    59.19310021
 H     16  15   8     1.111660692288   109.15194706   176.33040996
 H     18  17   2     1.082623867893   120.61675504     0.11189564
 H     19  18  17     1.082394772409   120.96861848   180.11399919
 H     21  20  19     1.044277736723   127.29302643     0.02749568
 H     22  21  20     1.081977122794   123.88573903   179.99698415
 H     23  22  21     1.081989897824   127.33008462   180.00064418
 H     25  24  20     1.080514284082   119.19394574   179.78621602

---------------------------
INTERNAL COORDINATES (A.U.)
---------------------------
 O      0   0   0     0.000000000000     0.00000000     0.00000000
 C      1   0   0     2.383821930842     0.00000000     0.00000000
 C      2   1   0     2.849498497609   117.83354267     0.00000000
 C      3   2   1     2.910028943259   112.32662381   255.70944150
 C      4   3   2     2.927505125889   114.00801027    61.93792739
 C      5   4   3     2.929856585277   110.82827720   185.22803159
 C      6   5   4     2.900996094402   111.42923986   262.41406298
 N      7   6   5     2.811110670493   112.45697484   298.67338137
 C      8   7   6     2.799608542288   111.38514416   263.51856420
 C      9   8   7     2.917292484679   111.86804091   194.38937386
 C     10   9   8     2.879464834731   112.35436377   176.17120869
 C     11  10   9     2.877322924915   105.31441848   204.42549849
 C     12  11  10     2.888721552754   106.71020543    22.23346835
 C     13  12  11     2.881708056364   106.92877914   356.74542147
 C      8   7   6     2.811677370384   113.72489610    30.66857640
 C     15   8   7     2.897086298571   112.26815613    29.59805650
 C      2   1   3     2.815693046028   119.30557936   181.52549046
 C     17   2   1     2.690172653087   119.51584019     5.72409867
 C     18  17   2     2.657256921326   121.09198101   179.83925477
 C     19  18  17     2.627884415142   117.92632176     0.06331627
 N     20  19  18     2.537924395291   127.45727115   180.01327130
 C     21  20  19     2.556171499208   105.82677468   180.03873754
 C     22  21  20     2.628937885006   110.76146001     0.00000000
 C     20  19  18     2.582952151937   121.66835903     0.05218021
 C     24  20  19     2.631231653300   122.06180106     0.00000000
 H      3   2   1     2.097016781639   109.80036307   133.50360203
 H      3   2   1     2.099604357758   109.70567260    18.04688601
 H      4   3   2     2.099774752893   108.63659226   299.90950376
 H      4   3   2     2.101271536324   108.52788061   184.01195117
 H      5   4   3     2.102806493360   108.04529161   301.76632242
 H      6   5   4     2.101927318463   109.36107102   142.66387630
 H      6   5   4     2.101042792118   111.47200294    25.02934029
 H      7   6   5     2.102094646300   108.95775864   173.68048372
 H      7   6   5     2.100182372878   108.87690323    58.98242801
 H      9   8   7     2.103761439997   109.89113517   313.70379809
 H      9   8   7     2.103793718883   110.50716473    71.80229766
 H     10   9   8     2.103152989542   109.96702215   296.12194694
 H     11  10   9     2.103426614642   110.78091661   322.13584640
 H     11  10   9     2.101122295348   111.27826175    83.63199535
 H     12  11  10     2.101173651483   110.73603050   143.27063944
 H     12  11  10     2.102185036454   109.68406456   263.36569488
 H     13  12  11     2.101375709124   110.79753250   117.17344822
 H     13  12  11     2.101923359882   109.93225346   237.36498485
 H     14  13  12     2.103503386586   109.17168928   101.98152191
 H     14  13  12     2.100926843010   111.25799749   222.29907402
 H     15   8   7     2.099150305733   108.92015862   149.05843229
 H     15   8   7     2.105330056152   111.40964242   267.89114117
 H     16  15   8     2.102630213785   108.31029748    59.19310021
 H     16  15   8     2.100734262269   109.15194706   176.33040996
 H     18  17   2     2.045862616365   120.61675504     0.11189564
 H     19  18  17     2.045429688642   120.96861848   180.11399919
 H     21  20  19     1.973398930158   127.29302643     0.02749568
 H     22  21  20     2.044640445249   123.88573903   179.99698415
 H     23  22  21     2.044664586558   127.33008462   180.00064418
 H     25  24  20     2.041876080705   119.19394574   179.78621602

---------------------
BASIS SET INFORMATION
---------------------
There are 4 groups of distinct atoms

 Group   1 Type O   : 10s4p1d contracted to 3s2p1d pattern {631/31/1}
 Group   2 Type C   : 10s4p1d contracted to 3s2p1d pattern {631/31/1}
 Group   3 Type N   : 10s4p1d contracted to 3s2p1d pattern {631/31/1}
 Group   4 Type H   : 4s contracted to 2s pattern {31}

Atom   0O    basis set group =>   1
Atom   1C    basis set group =>   2
Atom   2C    basis set group =>   2
Atom   3C    basis set group =>   2
Atom   4C    basis set group =>   2
Atom   5C    basis set group =>   2
Atom   6C    basis set group =>   2
Atom   7N    basis set group =>   3
Atom   8C    basis set group =>   2
Atom   9C    basis set group =>   2
Atom  10C    basis set group =>   2
Atom  11C    basis set group =>   2
Atom  12C    basis set group =>   2
Atom  13C    basis set group =>   2
Atom  14C    basis set group =>   2
Atom  15C    basis set group =>   2
Atom  16C    basis set group =>   2
Atom  17C    basis set group =>   2
Atom  18C    basis set group =>   2
Atom  19C    basis set group =>   2
Atom  20N    basis set group =>   3
Atom  21C    basis set group =>   2
Atom  22C    basis set group =>   2
Atom  23C    basis set group =>   2
Atom  24C    basis set group =>   2
Atom  25H    basis set group =>   4
Atom  26H    basis set group =>   4
Atom  27H    basis set group =>   4
Atom  28H    basis set group =>   4
Atom  29H    basis set group =>   4
Atom  30H    basis set group =>   4
Atom  31H    basis set group =>   4
Atom  32H    basis set group =>   4
Atom  33H    basis set group =>   4
Atom  34H    basis set group =>   4
Atom  35H    basis set group =>   4
Atom  36H    basis set group =>   4
Atom  37H    basis set group =>   4
Atom  38H    basis set group =>   4
Atom  39H    basis set group =>   4
Atom  40H    basis set group =>   4
Atom  41H    basis set group =>   4
Atom  42H    basis set group =>   4
Atom  43H    basis set group =>   4
Atom  44H    basis set group =>   4
Atom  45H    basis set group =>   4
Atom  46H    basis set group =>   4
Atom  47H    basis set group =>   4
Atom  48H    basis set group =>   4
Atom  49H    basis set group =>   4
Atom  50H    basis set group =>   4
Atom  51H    basis set group =>   4
Atom  52H    basis set group =>   4
Atom  53H    basis set group =>   4
Atom  54H    basis set group =>   4
---------------------------------
AUXILIARY/J BASIS SET INFORMATION
---------------------------------
There are 4 groups of distinct atoms

 Group   1 Type O   : 12s5p4d2f1g contracted to 6s4p3d1f1g pattern {711111/2111/211/2/1}
 Group   2 Type C   : 12s5p4d2f1g contracted to 6s4p3d1f1g pattern {711111/2111/211/2/1}
 Group   3 Type N   : 12s5p4d2f1g contracted to 6s4p3d1f1g pattern {711111/2111/211/2/1}
 Group   4 Type H   : 5s2p1d contracted to 3s1p1d pattern {311/2/1}

Atom   0O    basis set group =>   1
Atom   1C    basis set group =>   2
Atom   2C    basis set group =>   2
Atom   3C    basis set group =>   2
Atom   4C    basis set group =>   2
Atom   5C    basis set group =>   2
Atom   6C    basis set group =>   2
Atom   7N    basis set group =>   3
Atom   8C    basis set group =>   2
Atom   9C    basis set group =>   2
Atom  10C    basis set group =>   2
Atom  11C    basis set group =>   2
Atom  12C    basis set group =>   2
Atom  13C    basis set group =>   2
Atom  14C    basis set group =>   2
Atom  15C    basis set group =>   2
Atom  16C    basis set group =>   2
Atom  17C    basis set group =>   2
Atom  18C    basis set group =>   2
Atom  19C    basis set group =>   2
Atom  20N    basis set group =>   3
Atom  21C    basis set group =>   2
Atom  22C    basis set group =>   2
Atom  23C    basis set group =>   2
Atom  24C    basis set group =>   2
Atom  25H    basis set group =>   4
Atom  26H    basis set group =>   4
Atom  27H    basis set group =>   4
Atom  28H    basis set group =>   4
Atom  29H    basis set group =>   4
Atom  30H    basis set group =>   4
Atom  31H    basis set group =>   4
Atom  32H    basis set group =>   4
Atom  33H    basis set group =>   4
Atom  34H    basis set group =>   4
Atom  35H    basis set group =>   4
Atom  36H    basis set group =>   4
Atom  37H    basis set group =>   4
Atom  38H    basis set group =>   4
Atom  39H    basis set group =>   4
Atom  40H    basis set group =>   4
Atom  41H    basis set group =>   4
Atom  42H    basis set group =>   4
Atom  43H    basis set group =>   4
Atom  44H    basis set group =>   4
Atom  45H    basis set group =>   4
Atom  46H    basis set group =>   4
Atom  47H    basis set group =>   4
Atom  48H    basis set group =>   4
Atom  49H    basis set group =>   4
Atom  50H    basis set group =>   4
Atom  51H    basis set group =>   4
Atom  52H    basis set group =>   4
Atom  53H    basis set group =>   4
Atom  54H    basis set group =>   4

======================   ALLOCATED NODES   ======================
	gpua089: flags=0x11 slots=1 max_slots=0 slots_inuse=0 state=UP
=================================================================


           ************************************************************
           *        Program running with 16 parallel MPI-processes    *
           *              working on a common directory               *
           ************************************************************
------------------------------------------------------------------------------
                           ORCA GTO INTEGRAL CALCULATION
                           -- RI-GTO INTEGRALS CHOSEN --
------------------------------------------------------------------------------
------------------------------------------------------------------------------
                   ___                                                        
                  /   \      - P O W E R E D   B Y -                         
                 /     \                                                     
                 |  |  |   _    _      __       _____    __    __             
                 |  |  |  | |  | |    /  \     |  _  \  |  |  /  |          
                  \  \/   | |  | |   /    \    | | | |  |  | /  /          
                 / \  \   | |__| |  /  /\  \   | |_| |  |  |/  /          
                |  |  |   |  __  | /  /__\  \  |    /   |      \           
                |  |  |   | |  | | |   __   |  |    \   |  |\   \          
                \     /   | |  | | |  |  |  |  | |\  \  |  | \   \       
                 \___/    |_|  |_| |__|  |__|  |_| \__\ |__|  \__/        
                                                                              
                      - O R C A' S   B I G   F R I E N D -                    
                                      &                                       
                       - I N T E G R A L  F E E D E R -                       
                                                                              
 v1 FN, 2020, v2 2021                                                         
------------------------------------------------------------------------------


Reading SHARK input file compound_medoid_4/compound_medoid_4.SHARKINP.tmp ... ok
----------------------
SHARK INTEGRAL PACKAGE
----------------------

Number of atoms                             ...     55
Number of basis functions                   ...    410
Number of shells                            ...    210
Maximum angular momentum                    ...      2
Integral batch strategy                     ... SHARK/LIBINT Hybrid
RI-J (if used) integral strategy            ... SPLIT-RIJ (Revised 2003 algorithm where possible)
Printlevel                                  ...      1
Contraction scheme used                     ... SEGMENTED contraction
Coulomb Range Separation                    ... NOT USED
Exchange Range Separation                   ... NOT USED
Finite Nucleus Model                        ... NOT USED
Auxiliary Coulomb fitting basis             ... AVAILABLE
   # of basis functions in Aux-J            ...   1555
   # of shells in Aux-J                     ...    525
   Maximum angular momentum in Aux-J        ...      4
Auxiliary J/K fitting basis                 ... NOT available
Auxiliary Correlation fitting basis         ... NOT available
Auxiliary 'external' fitting basis          ... NOT available
Integral threshold                          ...     2.500000e-11
Primitive cut-off                           ...     2.500000e-12
Primitive pair pre-selection threshold      ...     2.500000e-12

Calculating pre-screening integrals         ... done (  0.1 sec) Dimension = 210
Organizing shell pair data                  ... done (  0.1 sec)
Shell pair information
Total number of shell pairs                 ...     22155
Shell pairs after pre-screening             ...     12827
Total number of primitive shell pairs       ...    123375
Primitive shell pairs kept                  ...     40154
          la=0 lb=0:   5167 shell pairs
          la=1 lb=0:   4195 shell pairs
          la=1 lb=1:    876 shell pairs
          la=2 lb=0:   1707 shell pairs
          la=2 lb=1:    731 shell pairs
          la=2 lb=2:    151 shell pairs

Calculating one electron integrals          ... done (  0.1 sec)
Calculating RI/J V-Matrix + Cholesky decomp.... done (  0.3 sec)
Calculating Nuclear repulsion               ... done (  0.0 sec) ENN=   2075.454817566682 Eh

SHARK setup successfully completed in   0.9 seconds

Maximum memory used throughout the entire GTOINT-calculation: 25.5 MB

======================   ALLOCATED NODES   ======================
	gpua089: flags=0x11 slots=1 max_slots=0 slots_inuse=0 state=UP
=================================================================


           ************************************************************
           *        Program running with 16 parallel MPI-processes    *
           *              working on a common directory               *
           ************************************************************
-------------------------------------------------------------------------------
                                 ORCA SCF
-------------------------------------------------------------------------------

------------
SCF SETTINGS
------------
Hamiltonian:
 Density Functional     Method          .... DFT(GTOs)
 Exchange Functional    Exchange        .... B88
   X-Alpha parameter    XAlpha          ....  0.666667
   Becke's b parameter  XBeta           ....  0.004200
 Correlation Functional Correlation     .... LYP
 LDA part of GGA corr.  LDAOpt          .... VWN-5
 Gradients option       PostSCFGGA      .... off
 Hybrid DFT is turned on
   Fraction HF Exchange ScalHFX         ....  0.200000
   Scaling of DF-GGA-X  ScalDFX         ....  0.720000
   Scaling of DF-GGA-C  ScalDFC         ....  0.810000
   Scaling of DF-LDA-C  ScalLDAC        ....  1.000000
   Perturbative correction              ....  0.000000
   Density functional embedding theory  .... OFF
   NL short-range parameter             ....  4.800000
 RI-approximation to the Coulomb term is turned on
   Number of AuxJ basis functions       .... 1555
   RIJ-COSX (HFX calculated with COS-X)).... on


General Settings:
 Integral files         IntName         .... compound_medoid_4/compound_medoid_4
 Hartree-Fock type      HFTyp           .... RHF
 Total Charge           Charge          ....    0
 Multiplicity           Mult            ....    1
 Number of Electrons    NEL             ....  184
 Basis Dimension        Dim             ....  410
 Nuclear Repulsion      ENuc            ....   2075.4548175667 Eh

Convergence Acceleration:
 DIIS                   CNVDIIS         .... on
   Start iteration      DIISMaxIt       ....    12
   Startup error        DIISStart       ....  0.200000
   # of expansion vecs  DIISMaxEq       ....     5
   Bias factor          DIISBfac        ....   1.050
   Max. coefficient     DIISMaxC        ....  10.000
 Trust-Rad. Augm. Hess. CNVTRAH         .... auto
   Auto Start mean grad. ratio tolernc. ....  1.125000
   Auto Start start iteration           ....    20
   Auto Start num. interpolation iter.  ....    10
   Max. Number of Micro iterations      ....    16
   Max. Number of Macro iterations      .... Maxiter - #DIIS iter
   Number of Davidson start vectors     ....     2
   Converg. threshold I  (grad. norm)   ....   1.000e-05
   Converg. threshold II (energy diff.) ....   1.000e-08
   Grad. Scal. Fac. for Micro threshold ....   0.100
   Minimum threshold for Micro iter.    ....   0.010
   NR start threshold (gradient norm)   ....   0.001
   Initial trust radius                 ....   0.400
   Minimum AH scaling param. (alpha)    ....   1.000
   Maximum AH scaling param. (alpha)    .... 1000.000
   Orbital update algorithm             .... Taylor
   White noise on init. David. guess    .... on
   Maximum white noise                  ....   0.010
   Quad. conv. algorithm                .... NR
 SOSCF                  CNVSOSCF        .... on
   Start iteration      SOSCFMaxIt      ....   150
   Startup grad/error   SOSCFStart      ....  0.003300
 Level Shifting         CNVShift        .... on
   Level shift para.    LevelShift      ....    0.2500
   Turn off err/grad.   ShiftErr        ....    0.0010
 Zerner damping         CNVZerner       .... off
 Static damping         CNVDamp         .... on
   Fraction old density DampFac         ....    0.7000
   Max. Damping (<1)    DampMax         ....    0.9800
   Min. Damping (>=0)   DampMin         ....    0.0000
   Turn off err/grad.   DampErr         ....    0.1000
 Fernandez-Rico         CNVRico         .... off

SCF Procedure:
 Maximum # iterations   MaxIter         ....   125
 SCF integral mode      SCFMode         .... Direct
   Integral package                     .... SHARK and LIBINT hybrid scheme
 Reset frequency        DirectResetFreq ....    20
 Integral Threshold     Thresh          ....  2.500e-11 Eh
 Primitive CutOff       TCut            ....  2.500e-12 Eh

Convergence Tolerance:
 Convergence Check Mode ConvCheckMode   .... Total+1el-Energy
 Convergence forced     ConvForced      .... 0
 Energy Change          TolE            ....  1.000e-08 Eh
 1-El. energy change                    ....  1.000e-05 Eh
 Orbital Gradient       TolG            ....  1.000e-05
 Orbital Rotation angle TolX            ....  1.000e-05
 DIIS Error             TolErr          ....  5.000e-07


Diagonalization of the overlap matrix:
Smallest eigenvalue                        ... 3.667e-04
Time for diagonalization                   ...    0.035 sec
Threshold for overlap eigenvalues          ... 1.000e-08
Number of eigenvalues below threshold      ... 0
Time for construction of square roots      ...    0.032 sec
Total time needed                          ...    0.068 sec

Time for model grid setup =    0.250 sec

------------------------------
INITIAL GUESS: MODEL POTENTIAL
------------------------------
Loading Hartree-Fock densities                     ... done
Calculating cut-offs                               ... done
Initializing the effective Hamiltonian             ... done
Setting up the integral package (SHARK)            ... done
Starting the Coulomb interaction                   ... done (   0.1 sec)
Reading the grid                                   ... done
Mapping shells                                     ... done
Starting the XC term evaluation                    ... done (   0.1 sec)
  promolecular density results
     # of electrons  =    183.976942044
     EX              =   -143.451052366
     EC              =     -6.142126989
     EX+EC           =   -149.593179354
Transforming the Hamiltonian                       ... done (   0.0 sec)
Diagonalizing the Hamiltonian                      ... done (   0.0 sec)
Back transforming the eigenvectors                 ... done (   0.0 sec)
Now organizing SCF variables                       ... done
                      ------------------
                      INITIAL GUESS DONE (   0.5 sec)
                      ------------------
-------------------
DFT GRID GENERATION
-------------------

General Integration Accuracy     IntAcc      ... 4.388
Radial Grid Type                 RadialGrid  ... OptM3 with GC (2021)
Angular Grid (max. ang.)         AngularGrid ... 4 (Lebedev-302)
Angular grid pruning method      GridPruning ... 4 (adaptive)
Weight generation scheme         WeightScheme... Becke
Basis function cutoff            BFCut       ... 1.0000e-11
Integration weight cutoff        WCut        ... 1.0000e-14
Angular grids for H and He will be reduced by one unit
Partially contracted basis set               ... off
Rotationally invariant grid construction     ... off

Total number of grid points                  ...   243692
Total number of batches                      ...     3834
Average number of points per batch           ...       63
Average number of grid points per atom       ...     4431
Time for grid setup =    1.402 sec

--------------------
COSX GRID GENERATION
--------------------

GRIDX 1
-------
General Integration Accuracy     IntAcc      ... 3.816
Radial Grid Type                 RadialGrid  ... OptM3 with GC (2021)
Angular Grid (max. ang.)         AngularGrid ... 1 (Lebedev-50)
Angular grid pruning method      GridPruning ... 4 (adaptive)
Weight generation scheme         WeightScheme... Becke
Basis function cutoff            BFCut       ... 1.0000e-11
Integration weight cutoff        WCut        ... 1.0000e-14
Angular grids for H and He will be reduced by one unit
Partially contracted basis set               ... on
Rotationally invariant grid construction     ... off

Total number of grid points                  ...    31006
Total number of batches                      ...      518
Average number of points per batch           ...       59
Average number of grid points per atom       ...      564
UseSFitting                                  ... on

GRIDX 2
-------
General Integration Accuracy     IntAcc      ... 4.020
Radial Grid Type                 RadialGrid  ... OptM3 with GC (2021)
Angular Grid (max. ang.)         AngularGrid ... 2 (Lebedev-110)
Angular grid pruning method      GridPruning ... 4 (adaptive)
Weight generation scheme         WeightScheme... Becke
Basis function cutoff            BFCut       ... 1.0000e-11
Integration weight cutoff        WCut        ... 1.0000e-14
Angular grids for H and He will be reduced by one unit
Partially contracted basis set               ... on
Rotationally invariant grid construction     ... off

Total number of grid points                  ...    65439
Total number of batches                      ...     1046
Average number of points per batch           ...       62
Average number of grid points per atom       ...     1190
UseSFitting                                  ... on

GRIDX 3
-------
General Integration Accuracy     IntAcc      ... 4.338
Radial Grid Type                 RadialGrid  ... OptM3 with GC (2021)
Angular Grid (max. ang.)         AngularGrid ... 3 (Lebedev-194)
Angular grid pruning method      GridPruning ... 4 (adaptive)
Weight generation scheme         WeightScheme... Becke
Basis function cutoff            BFCut       ... 1.0000e-11
Integration weight cutoff        WCut        ... 1.0000e-14
Angular grids for H and He will be reduced by one unit
Partially contracted basis set               ... on
Rotationally invariant grid construction     ... off

Total number of grid points                  ...   142281
Total number of batches                      ...     2252
Average number of points per batch           ...       63
Average number of grid points per atom       ...     2587
UseSFitting                                  ... on

Time for X-Grid setup             =    1.476 sec

--------------
SCF ITERATIONS
--------------
ITER       Energy         Delta-E        Max-DP      RMS-DP      [F,P]     Damp
               ***  Starting incremental Fock matrix formation  ***
  0  -1039.7308384533   0.000000000000 0.09286412  0.00166129  0.2512772 0.7000
  1  -1040.0463751787  -0.315536725443 0.05169282  0.00119569  0.0937692 0.7000
                               ***Turning on DIIS***
  2  -1040.1732362886  -0.126861109904 0.07708627  0.00194061  0.0311354 0.0000
  3  -1040.3622840041  -0.189047715439 0.03512774  0.00088320  0.0450946 0.0000
  4  -1040.4101750516  -0.047891047502 0.01361007  0.00027692  0.0144103 0.0000
  5  -1040.4128773576  -0.002702306054 0.00777031  0.00009499  0.0117867 0.0000
                      *** Initiating the SOSCF procedure ***
                           *** Shutting down DIIS ***
                      *** Re-Reading the Fockian *** 
                      *** Removing any level shift *** 
ITER      Energy       Delta-E        Grad      Rot      Max-DP    RMS-DP
  6  -1040.41320901  -0.0003316492  0.000257  0.000257  0.001245  0.000028
               *** Restarting incremental Fock matrix formation ***
  7  -1040.41316338   0.0000456302  0.000151  0.000581  0.000768  0.000017
  8  -1040.41316204   0.0000013335  0.000329  0.000685  0.000602  0.000009
  9  -1040.41316605  -0.0000040023  0.000067  0.000208  0.000258  0.000005
 10  -1040.41316573   0.0000003134  0.000111  0.000123  0.000190  0.000003
 11  -1040.41316620  -0.0000004664  0.000011  0.000046  0.000065  0.000001
 12  -1040.41316617   0.0000000255  0.000019  0.000035  0.000039  0.000001
                  ***Gradient check signals convergence***
              ***Rediagonalizing the Fockian in SOSCF/NRSCF***

               *****************************************************
               *                     SUCCESS                       *
               *           SCF CONVERGED AFTER  13 CYCLES          *
               *****************************************************

Old exchange energy                            =    -29.275451613 Eh
New exchange energy                            =    -29.275459923 Eh
Exchange energy change after final integration =     -0.000008310 Eh
Total energy after final integration           =  -1040.413174524 Eh
Final COS-X integration done in                =     5.768 sec

----------------
TOTAL SCF ENERGY
----------------

Total Energy       :        -1040.41317452 Eh          -28311.08179 eV

Components:
Nuclear Repulsion  :         2075.45481757 Eh           56475.99677 eV
Electronic Energy  :        -3115.86799209 Eh          -84787.07856 eV
One Electron Energy:        -5534.46943389 Eh         -150600.56968 eV
Two Electron Energy:         2418.60144180 Eh           65813.49112 eV
Max COSX asymmetry :            0.00000432 Eh               0.00012 eV

Virial components:
Potential Energy   :        -2074.66136761 Eh          -56454.40590 eV
Kinetic Energy     :         1034.24819309 Eh           28143.32411 eV
Virial Ratio       :            2.00596083


DFT components:
N(Alpha)           :       92.000058722041 electrons
N(Beta)            :       92.000058722041 electrons
N(Total)           :      184.000117444081 electrons
E(X)               :     -116.116030011219 Eh       
E(C)               :       -7.234751223990 Eh       
E(XC)              :     -123.350781235209 Eh       
DFET-embed. en.    :        0.000000000000 Eh       

---------------
SCF CONVERGENCE
---------------

  Last Energy change         ...   -4.0895e-08  Tolerance :   1.0000e-08
  Last MAX-Density change    ...    6.6613e-15  Tolerance :   1.0000e-07
  Last RMS-Density change    ...    4.5274e-17  Tolerance :   5.0000e-09
  Last Orbital Gradient      ...    2.2469e-06  Tolerance :   1.0000e-05
  Last Orbital Rotation      ...    8.4968e-06  Tolerance :   1.0000e-05

             **** THE GBW FILE WAS UPDATED (compound_medoid_4/compound_medoid_4.gbw) ****
             **** DENSITY compound_medoid_4/compound_medoid_4.scfp WAS UPDATED ****
             **** ENERGY FILE WAS UPDATED (compound_medoid_4/compound_medoid_4.en.tmp) ****
             **** THE GBW FILE WAS UPDATED (compound_medoid_4/compound_medoid_4.gbw) ****
             **** DENSITY compound_medoid_4/compound_medoid_4.scfp WAS UPDATED ****
----------------
ORBITAL ENERGIES
----------------

  NO   OCC          E(Eh)            E(eV) 
   0   2.0000     -19.109544      -519.9971 
   1   2.0000     -14.387960      -391.5163 
   2   2.0000     -14.299381      -389.1059 
   3   2.0000     -10.253074      -279.0003 
   4   2.0000     -10.216757      -278.0121 
   5   2.0000     -10.211960      -277.8816 
   6   2.0000     -10.187509      -277.2162 
   7   2.0000     -10.186551      -277.1901 
   8   2.0000     -10.186387      -277.1857 
   9   2.0000     -10.185456      -277.1603 
  10   2.0000     -10.184594      -277.1369 
  11   2.0000     -10.183306      -277.1018 
  12   2.0000     -10.178353      -276.9671 
  13   2.0000     -10.175081      -276.8780 
  14   2.0000     -10.173983      -276.8481 
  15   2.0000     -10.171617      -276.7838 
  16   2.0000     -10.171067      -276.7688 
  17   2.0000     -10.167239      -276.6646 
  18   2.0000     -10.162715      -276.5415 
  19   2.0000     -10.162614      -276.5388 
  20   2.0000     -10.161117      -276.4980 
  21   2.0000     -10.157322      -276.3948 
  22   2.0000     -10.156963      -276.3850 
  23   2.0000     -10.154836      -276.3271 
  24   2.0000     -10.151377      -276.2330 
  25   2.0000      -1.005711       -27.3668 
  26   2.0000      -0.994184       -27.0531 
  27   2.0000      -0.895927       -24.3794 
  28   2.0000      -0.846274       -23.0283 
  29   2.0000      -0.823911       -22.4198 
  30   2.0000      -0.801472       -21.8092 
  31   2.0000      -0.792510       -21.5653 
  32   2.0000      -0.761009       -20.7081 
  33   2.0000      -0.739454       -20.1216 
  34   2.0000      -0.732386       -19.9292 
  35   2.0000      -0.715149       -19.4602 
  36   2.0000      -0.711268       -19.3546 
  37   2.0000      -0.692247       -18.8370 
  38   2.0000      -0.659745       -17.9526 
  39   2.0000      -0.641946       -17.4682 
  40   2.0000      -0.620514       -16.8851 
  41   2.0000      -0.614573       -16.7234 
  42   2.0000      -0.603634       -16.4257 
  43   2.0000      -0.594537       -16.1782 
  44   2.0000      -0.575439       -15.6585 
  45   2.0000      -0.551239       -15.0000 
  46   2.0000      -0.541627       -14.7384 
  47   2.0000      -0.536403       -14.5963 
  48   2.0000      -0.529769       -14.4157 
  49   2.0000      -0.508516       -13.8374 
  50   2.0000      -0.480578       -13.0772 
  51   2.0000      -0.478846       -13.0301 
  52   2.0000      -0.470398       -12.8002 
  53   2.0000      -0.468696       -12.7539 
  54   2.0000      -0.456809       -12.4304 
  55   2.0000      -0.454007       -12.3542 
  56   2.0000      -0.446349       -12.1458 
  57   2.0000      -0.441861       -12.0236 
  58   2.0000      -0.438829       -11.9412 
  59   2.0000      -0.435718       -11.8565 
  60   2.0000      -0.420963       -11.4550 
  61   2.0000      -0.418253       -11.3812 
  62   2.0000      -0.410428       -11.1683 
  63   2.0000      -0.403534       -10.9807 
  64   2.0000      -0.400404       -10.8955 
  65   2.0000      -0.392784       -10.6882 
  66   2.0000      -0.389796       -10.6069 
  67   2.0000      -0.387863       -10.5543 
  68   2.0000      -0.379812       -10.3352 
  69   2.0000      -0.370040       -10.0693 
  70   2.0000      -0.366251        -9.9662 
  71   2.0000      -0.359787        -9.7903 
  72   2.0000      -0.353540        -9.6203 
  73   2.0000      -0.348511        -9.4835 
  74   2.0000      -0.343120        -9.3368 
  75   2.0000      -0.339046        -9.2259 
  76   2.0000      -0.332114        -9.0373 
  77   2.0000      -0.320547        -8.7225 
  78   2.0000      -0.319018        -8.6809 
  79   2.0000      -0.315329        -8.5805 
  80   2.0000      -0.309687        -8.4270 
[...]
  41 H :    0.118872
  42 H :    0.118615
  43 H :    0.115562
  44 H :    0.124713
  45 H :    0.117012
  46 H :    0.094518
  47 H :    0.118570
  48 H :    0.138866
  49 H :    0.148523
  50 H :    0.132269
  51 H :    0.260282
  52 H :    0.138035
  53 H :    0.137213
  54 H :    0.134926

-------------------------------
LOEWDIN REDUCED ORBITAL CHARGES
-------------------------------
  0 O s       :     3.562461  s :     3.562461
      pz      :     1.427203  p :     4.608902
      px      :     1.615333
      py      :     1.566366
      dz2     :     0.007110  d :     0.054822
      dxz     :     0.004742
      dyz     :     0.013352
      dx2y2   :     0.014097
      dxy     :     0.015522
  1 C s       :     2.889925  s :     2.889925
      pz      :     0.824431  p :     2.776742
      px      :     0.943676
      py      :     1.008635
      dz2     :     0.023067  d :     0.207033
      dxz     :     0.025975
      dyz     :     0.033815
      dx2y2   :     0.071549
      dxy     :     0.052628
  2 C s       :     2.945569  s :     2.945569
      pz      :     1.089306  p :     3.235368
      px      :     1.082497
      py      :     1.063566
      dz2     :     0.016464  d :     0.078906
      dxz     :     0.020293
      dyz     :     0.009552
      dx2y2   :     0.008837
      dxy     :     0.023760
  3 C s       :     2.941053  s :     2.941053
      pz      :     1.057519  p :     3.195436
      px      :     1.059221
      py      :     1.078696
      dz2     :     0.014081  d :     0.084567
      dxz     :     0.026689
      dyz     :     0.011898
      dx2y2   :     0.012018
      dxy     :     0.019880
  4 C s       :     2.903501  s :     2.903501
      pz      :     1.034461  p :     3.125543
      px      :     1.027254
      py      :     1.063828
      dz2     :     0.016873  d :     0.096750
      dxz     :     0.025895
      dyz     :     0.017290
      dx2y2   :     0.011580
      dxy     :     0.025113
  5 C s       :     2.944863  s :     2.944863
      pz      :     1.063795  p :     3.217364
      px      :     1.055785
      py      :     1.097784
      dz2     :     0.010310  d :     0.081352
      dxz     :     0.017639
      dyz     :     0.024216
      dx2y2   :     0.011858
      dxy     :     0.017328
  6 C s       :     2.926824  s :     2.926824
      pz      :     1.082023  p :     3.117896
      px      :     1.017924
      py      :     1.017949
      dz2     :     0.010318  d :     0.114934
      dxz     :     0.024235
      dyz     :     0.028236
      dx2y2   :     0.025669
      dxy     :     0.026476
  7 N s       :     3.154850  s :     3.154850
      pz      :     1.388846  p :     3.938658
      px      :     1.287631
      py      :     1.262181
      dz2     :     0.011397  d :     0.089250
      dxz     :     0.019995
      dyz     :     0.019977
      dx2y2   :     0.013329
      dxy     :     0.024552
  8 C s       :     2.929304  s :     2.929304
      pz      :     1.023075  p :     3.106307
      px      :     1.007713
      py      :     1.075519
      dz2     :     0.012524  d :     0.117528
      dxz     :     0.029408
      dyz     :     0.034257
      dx2y2   :     0.016925
      dxy     :     0.024414
  9 C s       :     2.905205  s :     2.905205
      pz      :     1.041456  p :     3.125438
      px      :     1.023860
      py      :     1.060122
      dz2     :     0.009966  d :     0.099434
      dxz     :     0.027900
      dyz     :     0.024019
      dx2y2   :     0.014279
      dxy     :     0.023270
 10 C s       :     2.942581  s :     2.942581
      pz      :     1.066577  p :     3.204444
      px      :     1.042548
      py      :     1.095319
      dz2     :     0.005772  d :     0.082821
      dxz     :     0.022640
      dyz     :     0.027000
      dx2y2   :     0.014967
      dxy     :     0.012443
 11 C s       :     2.944464  s :     2.944464
      pz      :     1.053035  p :     3.211818
      px      :     1.070981
      py      :     1.087802
      dz2     :     0.012292  d :     0.080183
      dxz     :     0.021587
      dyz     :     0.016481
      dx2y2   :     0.025108
      dxy     :     0.004716
 12 C s       :     2.945029  s :     2.945029
      pz      :     1.069558  p :     3.214124
      px      :     1.068684
      py      :     1.075882
      dz2     :     0.019057  d :     0.079483
      dxz     :     0.006372
      dyz     :     0.021969
      dx2y2   :     0.010505
      dxy     :     0.021580
 13 C s       :     2.941914  s :     2.941914
      pz      :     1.088911  p :     3.203763
      px      :     1.040453
      py      :     1.074399
      dz2     :     0.014535  d :     0.082300
      dxz     :     0.017929
      dyz     :     0.016047
      dx2y2   :     0.016589
      dxy     :     0.017201
 14 C s       :     2.926619  s :     2.926619
      pz      :     1.061683  p :     3.115745
      px      :     1.036068
      py      :     1.017994
      dz2     :     0.013038  d :     0.114185
      dxz     :     0.024420
      dyz     :     0.032480
      dx2y2   :     0.018205
      dxy     :     0.026043
 15 C s       :     2.937408  s :     2.937408
      pz      :     1.072911  p :     3.220962
      px      :     1.042946
      py      :     1.105105
      dz2     :     0.007229  d :     0.082231
      dxz     :     0.021382
      dyz     :     0.024508
      dx2y2   :     0.014875
      dxy     :     0.014237
 16 C s       :     2.883184  s :     2.883184
      pz      :     1.019359  p :     3.098905
      px      :     1.023824
      py      :     1.055722
      dz2     :     0.008644  d :     0.097879
      dxz     :     0.012751
      dyz     :     0.019191
      dx2y2   :     0.029727
      dxy     :     0.027565
 17 C s       :     2.917138  s :     2.917138
      pz      :     0.991403  p :     3.104922
      px      :     1.035254
      py      :     1.078264
      dz2     :     0.009921  d :     0.084333
      dxz     :     0.012206
      dyz     :     0.014342
      dx2y2   :     0.021907
      dxy     :     0.025956
 18 C s       :     2.908873  s :     2.908873
      pz      :     1.043896  p :     3.161350
      px      :     1.062096
      py      :     1.055358
      dz2     :     0.011306  d :     0.085512
      dxz     :     0.012055
      dyz     :     0.013306
      dx2y2   :     0.022522
      dxy     :     0.026324
 19 C s       :     2.846887  s :     2.846887
      pz      :     0.971203  p :     2.987413
      px      :     0.948428
      py      :     1.067783
      dz2     :     0.021059  d :     0.139577
      dxz     :     0.026098
      dyz     :     0.019809
      dx2y2   :     0.041969
      dxy     :     0.030643
 20 N s       :     3.102951  s :     3.102951
      pz      :     1.460660  p :     3.941072
      px      :     1.293346
      py      :     1.187066
      dz2     :     0.010971  d :     0.088449
      dxz     :     0.010842
      dyz     :     0.017189
      dx2y2   :     0.021774
      dxy     :     0.027672
 21 C s       :     2.910541  s :     2.910541
      pz      :     1.054056  p :     3.067544
      px      :     1.076392
      py      :     0.937097
      dz2     :     0.010367  d :     0.117103
      dxz     :     0.012818
      dyz     :     0.026836
      dx2y2   :     0.038727
      dxy     :     0.028354
 22 C s       :     2.914773  s :     2.914773
      pz      :     1.069983  p :     3.190075
      px      :     1.052175
      py      :     1.067918
      dz2     :     0.012271  d :     0.082696
      dxz     :     0.011345
      dyz     :     0.011903
      dx2y2   :     0.023795
      dxy     :     0.023383
 23 C s       :     2.860177  s :     2.860177
      pz      :     1.019277  p :     3.074276
      px      :     1.032664
      py      :     1.022335
      dz2     :     0.013066  d :     0.105457
      dxz     :     0.015670
      dyz     :     0.018430
      dx2y2   :     0.027709
      dxy     :     0.030583
 24 C s       :     2.914042  s :     2.914042
      pz      :     1.000763  p :     3.114102
      px      :     1.037462
      py      :     1.075876
      dz2     :     0.011905  d :     0.085304
      dxz     :     0.012944
      dyz     :     0.012076
      dx2y2   :     0.024906
      dxy     :     0.023474
 25 H s       :     0.870959  s :     0.870959
 26 H s       :     0.858870  s :     0.858870
 27 H s       :     0.880817  s :     0.880817
 28 H s       :     0.879408  s :     0.879408
 29 H s       :     0.877387  s :     0.877387
 30 H s       :     0.879413  s :     0.879413
 31 H s       :     0.880329  s :     0.880329
 32 H s       :     0.880012  s :     0.880012
 33 H s       :     0.889605  s :     0.889605
 34 H s       :     0.886108  s :     0.886108
 35 H s       :     0.910029  s :     0.910029
 36 H s       :     0.883728  s :     0.883728
 37 H s       :     0.886193  s :     0.886193
 38 H s       :     0.881873  s :     0.881873
 39 H s       :     0.881237  s :     0.881237
 40 H s       :     0.881610  s :     0.881610
 41 H s       :     0.881128  s :     0.881128
 42 H s       :     0.881385  s :     0.881385
 43 H s       :     0.884438  s :     0.884438
 44 H s       :     0.875287  s :     0.875287
 45 H s       :     0.882988  s :     0.882988
 46 H s       :     0.905482  s :     0.905482
 47 H s       :     0.881430  s :     0.881430
 48 H s       :     0.861134  s :     0.861134
 49 H s       :     0.851477  s :     0.851477
 50 H s       :     0.867731  s :     0.867731
 51 H s       :     0.739718  s :     0.739718
 52 H s       :     0.861965  s :     0.861965
 53 H s       :     0.862787  s :     0.862787
 54 H s       :     0.865074  s :     0.865074


                      *****************************
                      * MAYER POPULATION ANALYSIS *
                      *****************************

  NA   - Mulliken gross atomic population
  ZA   - Total nuclear charge
  QA   - Mulliken gross atomic charge
  VA   - Mayer's total valence
  BVA  - Mayer's bonded valence
  FA   - Mayer's free valence

  ATOM       NA         ZA         QA         VA         BVA        FA
  0 O      8.4366     8.0000    -0.4366     2.0744     2.0744     0.0000
  1 C      5.6377     6.0000     0.3623     3.9105     3.9105     0.0000
  2 C      6.3536     6.0000    -0.3536     3.8041     3.8041    -0.0000
  3 C      6.2843     6.0000    -0.2843     3.8834     3.8834    -0.0000
  4 C      6.0611     6.0000    -0.0611     3.8854     3.8854    -0.0000
  5 C      6.2847     6.0000    -0.2847     3.8442     3.8442    -0.0000
  6 C      6.1367     6.0000    -0.1367     3.8910     3.8910     0.0000
  7 N      7.3667     7.0000    -0.3667     2.9678     2.9678     0.0000
  8 C      6.1195     6.0000    -0.1195     3.8647     3.8647    -0.0000
  9 C      6.0913     6.0000    -0.0913     3.8883     3.8883     0.0000
 10 C      6.2683     6.0000    -0.2683     3.8658     3.8658     0.0000
 11 C      6.2673     6.0000    -0.2673     3.8712     3.8712     0.0000
 12 C      6.2709     6.0000    -0.2709     3.8676     3.8676    -0.0000
 13 C      6.2539     6.0000    -0.2539     3.8679     3.8679    -0.0000
 14 C      6.1286     6.0000    -0.1286     3.8673     3.8673    -0.0000
 15 C      6.3047     6.0000    -0.3047     3.8676     3.8676     0.0000
 16 C      5.9326     6.0000     0.0674     3.8729     3.8729    -0.0000
 17 C      6.1836     6.0000    -0.1836     3.9219     3.9219     0.0000
 18 C      6.1607     6.0000    -0.1607     3.8368     3.8368     0.0000
 19 C      5.7002     6.0000     0.2998     3.8189     3.8189     0.0000
 20 N      7.6373     7.0000    -0.6373     3.1252     3.1252    -0.0000
 21 C      5.9631     6.0000     0.0369     3.7802     3.7802     0.0000
 22 C      6.2132     6.0000    -0.2132     3.9154     3.9154     0.0000
 23 C      5.8901     6.0000     0.1099     4.0642     4.0642    -0.0000
 24 C      6.2585     6.0000    -0.2585     3.8475     3.8475     0.0000
 25 H      0.8578     1.0000     0.1422     0.9322     0.9322    -0.0000
 26 H      0.8347     1.0000     0.1653     0.9382     0.9382     0.0000
 27 H      0.8639     1.0000     0.1361     0.9367     0.9367     0.0000
 28 H      0.8645     1.0000     0.1355     0.9340     0.9340     0.0000
 29 H      0.8662     1.0000     0.1338     0.9352     0.9352    -0.0000
 30 H      0.8630     1.0000     0.1370     0.9327     0.9327     0.0000
 31 H      0.8743     1.0000     0.1257     0.9390     0.9390     0.0000
 32 H      0.8715     1.0000     0.1285     0.9411     0.9411    -0.0000
 33 H      0.8683     1.0000     0.1317     0.9278     0.9278     0.0000
 34 H      0.8784     1.0000     0.1216     0.9420     0.9420    -0.0000
 35 H      0.8996     1.0000     0.1004     0.9364     0.9364    -0.0000
 36 H      0.8763     1.0000     0.1237     0.9334     0.9334     0.0000
 37 H      0.8761     1.0000     0.1239     0.9367     0.9367     0.0000
 38 H      0.8712     1.0000     0.1288     0.9370     0.9370     0.0000
 39 H      0.8695     1.0000     0.1305     0.9353     0.9353     0.0000
 40 H      0.8678     1.0000     0.1322     0.9329     0.9329     0.0000
 41 H      0.8693     1.0000     0.1307     0.9348     0.9348     0.0000
 42 H      0.8680     1.0000     0.1320     0.9332     0.9332     0.0000
 43 H      0.8761     1.0000     0.1239     0.9382     0.9382     0.0000
 44 H      0.8589     1.0000     0.1411     0.9387     0.9387     0.0000
 45 H      0.8629     1.0000     0.1371     0.9286     0.9286     0.0000
 46 H      0.8933     1.0000     0.1067     0.9338     0.9338     0.0000
 47 H      0.8670     1.0000     0.1330     0.9342     0.9342     0.0000
 48 H      0.8332     1.0000     0.1668     0.9423     0.9423     0.0000
 49 H      0.8435     1.0000     0.1565     0.9494     0.9494     0.0000
 50 H      0.8724     1.0000     0.1276     0.9376     0.9376    -0.0000
 51 H      0.6688     1.0000     0.3312     0.8610     0.8610    -0.0000
 52 H      0.8461     1.0000     0.1539     0.9347     0.9347     0.0000
 53 H      0.8668     1.0000     0.1332     0.9413     0.9413    -0.0000
 54 H      0.8655     1.0000     0.1345     0.9414     0.9414     0.0000

  Mayer bond orders larger than 0.100000
B(  0-O ,  1-C ) :   1.8517 B(  1-C ,  2-C ) :   0.9689 B(  1-C , 16-C ) :   1.0048 
B(  2-C ,  3-C ) :   0.9876 B(  2-C , 25-H ) :   0.9185 B(  2-C , 26-H ) :   0.9238 
B(  3-C ,  4-C ) :   1.0071 B(  3-C , 27-H ) :   0.9315 B(  3-C , 28-H ) :   0.9325 
B(  4-C ,  5-C ) :   0.9816 B(  4-C , 15-C ) :   1.0015 B(  4-C , 29-H ) :   0.9264 
B(  5-C ,  6-C ) :   0.9951 B(  5-C , 30-H ) :   0.9394 B(  5-C , 31-H ) :   0.9350 
B(  6-C ,  7-N ) :   0.9944 B(  6-C , 32-H ) :   0.9375 B(  6-C , 33-H ) :   0.9361 
B(  7-N ,  8-C ) :   0.9790 B(  7-N , 14-C ) :   0.9772 B(  8-C ,  9-C ) :   1.0046 
B(  8-C , 34-H ) :   0.9299 B(  8-C , 35-H ) :   0.9137 B(  9-C , 10-C ) :   0.9940 
B(  9-C , 13-C ) :   0.9990 B(  9-C , 36-H ) :   0.9254 B( 10-C , 11-C ) :   1.0090 
B( 10-C , 37-H ) :   0.9416 B( 10-C , 38-H ) :   0.9432 B( 11-C , 12-C ) :   0.9969 
B( 11-C , 39-H ) :   0.9505 B( 11-C , 40-H ) :   0.9504 B( 12-C , 13-C ) :   1.0032 
B( 12-C , 41-H ) :   0.9515 B( 12-C , 42-H ) :   0.9514 B( 13-C , 43-H ) :   0.9442 
B( 13-C , 44-H ) :   0.9417 B( 14-C , 15-C ) :   1.0123 B( 14-C , 45-H ) :   0.9317 
B( 14-C , 46-H ) :   0.9127 B( 15-C , 47-H ) :   0.9315 B( 15-C , 48-H ) :   0.9218 
B( 16-C , 17-C ) :   1.3203 B( 16-C , 24-C ) :   1.3999 B( 17-C , 18-C ) :   1.4839 
B( 17-C , 49-H ) :   0.9082 B( 18-C , 19-C ) :   1.3284 B( 18-C , 50-H ) :   0.9248 
B( 19-C , 20-N ) :   1.0236 B( 19-C , 23-C ) :   1.3013 B( 20-N , 21-C ) :   1.0895 
B( 20-N , 51-H ) :   0.8392 B( 21-C , 22-C ) :   1.6133 B( 21-C , 52-H ) :   0.9299 
B( 22-C , 23-C ) :   1.2579 B( 22-C , 53-H ) :   0.9315 B( 23-C , 24-C ) :   1.3371 
B( 24-C , 54-H ) :   0.9117 

-------
TIMINGS
-------

Total SCF time: 0 days 0 hours 0 min 33 sec 

Total time                  ....      33.423 sec
Sum of individual times     ....      32.410 sec  ( 97.0%)

Fock matrix formation       ....      28.627 sec  ( 85.7%)
  Split-RI-J                ....       3.706 sec  ( 12.9% of F)
  Chain of spheres X        ....      21.445 sec  ( 74.9% of F)
  XC integration            ....       3.033 sec  ( 10.6% of F)
    Basis function eval.    ....       0.582 sec  ( 19.2% of XC)
    Density eval.           ....       0.283 sec  (  9.3% of XC)
    XC-Functional eval.     ....       0.079 sec  (  2.6% of XC)
    XC-Potential eval.      ....       0.196 sec  (  6.5% of XC)
Diagonalization             ....       0.069 sec  (  0.2%)
Density matrix formation    ....       0.342 sec  (  1.0%)
Population analysis         ....       0.123 sec  (  0.4%)
Initial guess               ....       0.052 sec  (  0.2%)
Orbital Transformation      ....       0.000 sec  (  0.0%)
Orbital Orthonormalization  ....       0.040 sec  (  0.1%)
DIIS solution               ....       0.069 sec  (  0.2%)
SOSCF solution              ....       0.307 sec  (  0.9%)
Grid generation             ....       2.821 sec  (  8.4%)

Maximum memory used throughout the entire SCF-calculation: 91.2 MB

-------------------------   --------------------
FINAL SINGLE POINT ENERGY     -1040.439418285206
-------------------------   --------------------

                                *** OPTIMIZATION RUN DONE ***

                            ***************************************
                            *     ORCA property calculations      *
                            ***************************************

                                    ---------------------
                                    Active property flags
                                    ---------------------
   (+) Dipole Moment


------------------------------------------------------------------------------
                       ORCA ELECTRIC PROPERTIES CALCULATION
------------------------------------------------------------------------------

Dipole Moment Calculation                       ... on
Quadrupole Moment Calculation                   ... off
Polarizability Calculation                      ... off
GBWName                                         ... compound_medoid_4/compound_medoid_4.gbw
Electron density                                ... compound_medoid_4/compound_medoid_4.scfp
The origin for moment calculation is the CENTER OF MASS  = ( 1.614260,  0.138624 -0.128497)

-------------
DIPOLE MOMENT
-------------
                                X             Y             Z
Electronic contribution:     48.75331       3.33774      -2.22618
Nuclear contribution   :    -46.93178      -3.69170       3.39351
                        -----------------------------------------
Total Dipole Moment    :      1.82152      -0.35396       1.16734
                        -----------------------------------------
Magnitude (a.u.)       :      2.19224
Magnitude (Debye)      :      5.57222



--------------------
Rotational spectrum 
--------------------
 
Rotational constants in cm-1:     0.021831     0.002089     0.002068 
Rotational constants in MHz :   654.475365    62.613893    61.987504 

 Dipole components along the rotational axes: 
x,y,z [a.u.] :     1.847455     1.008673     0.612694 
x,y,z [Debye]:     4.695856     2.563844     1.557343 

 

======================   ALLOCATED NODES   ======================
	gpua089: flags=0x11 slots=1 max_slots=0 slots_inuse=0 state=UP
=================================================================

Timings for individual modules:

Sum of individual times         ...      606.286 sec (=  10.105 min)
GTO integral calculation        ...       39.147 sec (=   0.652 min)   6.5 %
SCF iterations                  ...      453.868 sec (=   7.564 min)  74.9 %
SCF Gradient evaluation         ...      111.629 sec (=   1.860 min)  18.4 %
Geometry relaxation             ...        1.642 sec (=   0.027 min)   0.3 %
                             ****ORCA TERMINATED NORMALLY****
TOTAL RUN TIME: 0 days 0 hours 10 minutes 36 seconds 846 msec
