
                                 *****************
                                 * O   R   C   A *
                                 *****************

                                            #,                                       
                                            ###                                      
                                            ####                                     
                                            #####                                    
                                            ######                                   
                                           ########,                                 
                                     ,,################,,,,,                         
                               ,,#################################,,                 
                          ,,##########################################,,             
                       ,#########################################, ''#####,          
                    ,#############################################,,   '####,        
                  ,##################################################,,,,####,       
                ,###########''''           ''''###############################       
              ,#####''   ,,,,##########,,,,          '''####'''          '####       
            ,##' ,,,,###########################,,,                        '##       
           ' ,,###''''                  '''############,,,                           
         ,,##''                                '''############,,,,        ,,,,,,###''
      ,#''                                            '''#######################'''  
     '                                                          ''''####''''         
             ,#######,   #######,   ,#######,      ##                                
            ,#'     '#,  ##    ##  ,#'     '#,    #''#        ######   ,####,        
            ##       ##  ##   ,#'  ##            #'  '#       #        #'  '#        
            ##       ##  #######   ##           ,######,      #####,   #    #        
            '#,     ,#'  ##    ##  '#,     ,#' ,#      #,         ##   #,  ,#        
             '#######'   ##     ##  '#######'  #'      '#     #####' # '####'        



                  #######################################################
                  #                        -***-                        #
                  #          Department of theory and spectroscopy      #
                  #    Directorship and core code : Frank Neese         #
                  #        Max Planck Institute fuer Kohlenforschung    #
                  #                Kaiser Wilhelm Platz 1               #
                  #                 D-45470 Muelheim/Ruhr               #
                  #                      Germany                        #
                  #                                                     #
                  #                  All rights reserved                #
                  #                        -***-                        #
                  #######################################################


                         Program Version 5.0.1 -  RELEASE  -


 With contributions from (in alphabetic order):
   Daniel Aravena         : Magnetic Suceptibility
   Michael Atanasov       : Ab Initio Ligand Field Theory (pilot matlab implementation)
   Alexander A. Auer      : GIAO ZORA, VPT2 properties, NMR spectrum
   Ute Becker             : Parallelization
   Giovanni Bistoni       : ED, misc. LED, open-shell LED, HFLD
   Martin Brehm           : Molecular dynamics
   Dmytro Bykov           : SCF Hessian
   Vijay G. Chilkuri      : MRCI spin determinant printing, contributions to CSF-ICE
   Dipayan Datta          : RHF DLPNO-CCSD density
   Achintya Kumar Dutta   : EOM-CC, STEOM-CC
   Dmitry Ganyushin       : Spin-Orbit,Spin-Spin,Magnetic field MRCI
   Miquel Garcia          : C-PCM and meta-GGA Hessian, CC/C-PCM, Gaussian charge scheme
   Yang Guo               : DLPNO-NEVPT2, F12-NEVPT2, CIM, IAO-localization
   Andreas Hansen         : Spin unrestricted coupled pair/coupled cluster methods
   Benjamin Helmich-Paris : MC-RPA, TRAH-SCF, COSX integrals
   Lee Huntington         : MR-EOM, pCC
   Robert Izsak           : Overlap fitted RIJCOSX, COSX-SCS-MP3, EOM
   Marcus Kettner         : VPT2
   Christian Kollmar      : KDIIS, OOCD, Brueckner-CCSD(T), CCSD density, CASPT2, CASPT2-K
   Simone Kossmann        : Meta GGA functionals, TD-DFT gradient, OOMP2, MP2 Hessian
   Martin Krupicka        : Initial AUTO-CI
   Lucas Lang             : DCDCAS
   Marvin Lechner         : AUTO-CI (C++ implementation), FIC-MRCC
   Dagmar Lenk            : GEPOL surface, SMD
   Dimitrios Liakos       : Extrapolation schemes; Compound Job, initial MDCI parallelization
   Dimitrios Manganas     : Further ROCIS development; embedding schemes
   Dimitrios Pantazis     : SARC Basis sets
   Anastasios Papadopoulos: AUTO-CI, single reference methods and gradients
   Taras Petrenko         : DFT Hessian,TD-DFT gradient, ASA, ECA, R-Raman, ABS, FL, XAS/XES, NRVS
   Peter Pinski           : DLPNO-MP2, DLPNO-MP2 Gradient
   Christoph Reimann      : Effective Core Potentials
   Marius Retegan         : Local ZFS, SOC
   Christoph Riplinger    : Optimizer, TS searches, QM/MM, DLPNO-CCSD(T), (RO)-DLPNO pert. Triples
   Tobias Risthaus        : Range-separated hybrids, TD-DFT gradient, RPA, STAB
   Michael Roemelt        : Original ROCIS implementation
   Masaaki Saitow         : Open-shell DLPNO-CCSD energy and density
   Barbara Sandhoefer     : DKH picture change effects
   Avijit Sen             : IP-ROCIS
   Kantharuban Sivalingam : CASSCF convergence, NEVPT2, FIC-MRCI
   Bernardo de Souza      : ESD, SOC TD-DFT
   Georgi Stoychev        : AutoAux, RI-MP2 NMR, DLPNO-MP2 response
   Willem Van den Heuvel  : Paramagnetic NMR
   Boris Wezisla          : Elementary symmetry handling
   Frank Wennmohs         : Technical directorship


 We gratefully acknowledge several colleagues who have allowed us to
 interface, adapt or use parts of their codes:
   Stefan Grimme, W. Hujo, H. Kruse, P. Pracht,  : VdW corrections, initial TS optimization,
                  C. Bannwarth, S. Ehlert          DFT functionals, gCP, sTDA/sTD-DF
   Ed Valeev, F. Pavosevic, A. Kumar             : LibInt (2-el integral package), F12 methods
   Garnet Chan, S. Sharma, J. Yang, R. Olivares  : DMRG
   Ulf Ekstrom                                   : XCFun DFT Library
   Mihaly Kallay                                 : mrcc  (arbitrary order and MRCC methods)
   Jiri Pittner, Ondrej Demel                    : Mk-CCSD
   Frank Weinhold                                : gennbo (NPA and NBO analysis)
   Christopher J. Cramer and Donald G. Truhlar   : smd solvation model
   Lars Goerigk                                  : TD-DFT with DH, B97 family of functionals
   V. Asgeirsson, H. Jonsson                     : NEB implementation
   FAccTs GmbH                                   : IRC, NEB, NEB-TS, DLPNO-Multilevel, CI-OPT
                                                   MM, QMMM, 2- and 3-layer-ONIOM, Crystal-QMMM,
                                                   LR-CPCM, SF, NACMEs, symmetry and pop. for TD-DFT,
                                                   nearIR, NL-DFT gradient (VV10), updates on ESD,
                                                   ML-optimized integration grids
   S Lehtola, MJT Oliveira, MAL Marques          : LibXC Library
   Liviu Ungur et al                             : ANISO software


 Your calculation uses the libint2 library for the computation of 2-el integrals
 For citations please refer to: http://libint.valeyev.net

 Your ORCA version has been built with support for libXC version: 5.1.0
 For citations please refer to: https://tddft.org/programs/libxc/

 This ORCA versions uses:
   CBLAS   interface :  Fast vector & matrix operations
   LAPACKE interface :  Fast linear algebra routines
   SCALAPACK package :  Parallel linear algebra routines
   Shared memory     :  Shared parallel matrices
   BLAS/LAPACK       :  OpenBLAS 0.3.15  USE64BITINT DYNAMIC_ARCH NO_AFFINITY Zen SINGLE_THREADED
        Core in use  :  Zen
   Copyright (c) 2011-2014, The OpenBLAS Project


================================================================================

----- Orbital basis set information -----
Your calculation utilizes the basis: 6-31G(d)
   H-He, Li-Ne : W. J. Hehre, R. Ditchfield and J.A. Pople, J. Chem. Phys. 56, 2257 (1972).
                 Note: He and Ne are unpublished basis sets taken from the Gaussian program.
                 Note: Li and B from J. D. Dill and J. A. Pople, J. Chem. Phys. 62, 2921 (1975).
   Na - Ar     : M. M. Francl, W. J. Pietro, W. J. Hehre, J. S. Binkley, M. S. Gordon, 
                 D. J. DeFrees and J. A. Pople, J. Chem. Phys. 77, 3654 (1982).
   K - Zn      : V. A. Rassolov, J. A. Pople, M. A. Ratner, and T. L. Windus, J. Chem. Phys. 109, 1223 (1998).

----- AuxJ basis set information -----
Your calculation utilizes the auxiliary basis: def2/J
   F. Weigend, Phys. Chem. Chem. Phys. 8, 1057 (2006).

================================================================================
                                        WARNINGS
                       Please study these warnings very carefully!
================================================================================


WARNING: Geometry Optimization
  ===> : Switching off AutoStart
         For restart on a previous wavefunction, please use MOREAD

INFO   : the flag for use of the SHARK integral package has been found!

================================================================================
                                       INPUT FILE
================================================================================
NAME = compound_medoid_11/compound_medoid_11.inp
|  1> ! B3LYP 6-31G(d) Opt TightSCF
|  2> %pal
|  3>    nprocs 16
|  4> end
|  5> 
|  6> * xyz 0 1
|  7> C    6.667919  -0.885930  -0.108318
|  8> N    5.360490  -1.184679   0.462260
|  9> C    4.181330  -0.479797   0.063833
| 10> O    4.247726   0.408089  -0.830162
| 11> O    2.952541  -0.829631   0.638063
| 12> C    1.776435  -0.068638   0.564756
| 13> C    1.795420   1.346364   0.467365
| 14> C    0.594308   2.070921   0.406359
| 15> C   -0.606500   1.366932   0.455950
| 16> C   -0.638153   0.005234   0.570571
| 17> C    0.542153  -0.740174   0.632207
| 18> C   -2.058527  -0.478543   0.621988
| 19> C   -2.360514  -1.169821   1.963337
| 20> C   -2.433915  -1.349327  -0.575650
| 21> C   -3.727792  -0.741286  -1.087938
| 22> N   -3.690704   0.699472  -0.795400
| 23> C   -3.155317   1.442396  -1.953746
| 24> C   -2.883891   0.828169   0.443578
| 25> N   -1.904003   1.920505   0.395982
| 26> H    6.648726  -1.059003  -1.204942
| 27> H    6.935367   0.172099   0.096602
| 28> H    7.437161  -1.545405   0.345968
| 29> H    5.281232  -1.932452   1.187476
| 30> H    2.729398   1.890801   0.467317
| 31> H    0.601895   3.150392   0.329210
| 32> H    0.505765  -1.818289   0.722101
| 33> H   -3.434426  -1.449489   2.020902
| 34> H   -1.749689  -2.091728   2.069332
| 35> H   -2.125840  -0.491205   2.811763
| 36> H   -1.665114  -1.287456  -1.378334
| 37> H   -2.575161  -2.419337  -0.306944
| 38> H   -4.584295  -1.190760  -0.538831
| 39> H   -3.873746  -0.965259  -2.169034
| 40> H   -3.198812   2.534592  -1.760137
| 41> H   -2.108028   1.142552  -2.180292
| 42> H   -3.785032   1.259241  -2.850919
| 43> H   -3.571699   1.000090   1.300735
| 44> H   -2.126708   2.940358   0.362661
| 45> *
| 46> 
| 47>                          ****END OF INPUT****
================================================================================

                       *****************************
                       * Geometry Optimization Run *
                       *****************************

Geometry optimization settings:
Update method            Update   .... BFGS
Choice of coordinates    CoordSys .... Z-matrix Internals
Initial Hessian          InHess   .... Almoef's Model

Convergence Tolerances:
Energy Change            TolE     ....  5.0000e-06 Eh
Max. Gradient            TolMAXG  ....  3.0000e-04 Eh/bohr
RMS Gradient             TolRMSG  ....  1.0000e-04 Eh/bohr
Max. Displacement        TolMAXD  ....  4.0000e-03 bohr
RMS Displacement         TolRMSD  ....  2.0000e-03 bohr
Strict Convergence                ....  False
------------------------------------------------------------------------------
                        ORCA OPTIMIZATION COORDINATE SETUP
------------------------------------------------------------------------------

The optimization will be done in new redundant internal coordinates
Making redundant internal coordinates   ...  (new redundants) done
Evaluating the initial hessian          ...  (Almloef) done
Evaluating the coordinates              ...  done
Calculating the B-matrix                .... done
Calculating the G-matrix                .... done
Diagonalizing the G-matrix              .... done
Small eigenvalue found = 4.045e-03
Small eigenvalue found = 1.021e-02
Small eigenvalue found = 2.591e-02
Small eigenvalue found = 2.948e-02
The first mode is                       ....  113
The number of degrees of freedom        ....  108

    -----------------------------------------------------------------
                    Redundant Internal Coordinates


    -----------------------------------------------------------------
         Definition                    Initial Value    Approx d2E/dq
    -----------------------------------------------------------------
      1. B(N   1,C   0)                  1.4575         0.436769   
      2. B(C   2,N   1)                  1.4304         0.482428   
      3. B(O   3,C   2)                  1.2617         0.896423   
      4. B(O   4,C   2)                  1.4007         0.537967   
      5. B(C   5,O   4)                  1.4028         0.533989   
      6. B(C   6,C   5)                  1.4185         0.562737   
      7. B(C   7,C   6)                  1.4041         0.593352   
      8. B(C   8,C   7)                  1.3928         0.618315   
      9. B(C   9,C   8)                  1.3669         0.680181   
     10. B(C  10,C   9)                  1.3973         0.608178   
     11. B(C  10,C   5)                  1.4068         0.587497   
     12. B(C  11,C   9)                  1.5014         0.414989   
     13. B(C  12,C  11)                  1.5389         0.361530   
     14. B(C  13,C  11)                  1.5276         0.376903   
     15. B(C  14,C  13)                  1.5186         0.389493   
     16. B(N  15,C  14)                  1.4706         0.416144   
     17. B(C  16,N  15)                  1.4766         0.407112   
     18. B(C  17,N  15)                  1.4841         0.396034   
     19. B(C  17,C  11)                  1.5558         0.339778   
     20. B(N  18,C  17)                  1.4682         0.419850   
     21. B(N  18,C   8)                  1.4119         0.516278   
     22. B(H  19,C   0)                  1.1104         0.334145   
     23. B(H  20,C   0)                  1.1104         0.334123   
     24. B(H  21,C   0)                  1.1104         0.334084   
     25. B(H  22,N   1)                  1.0447         0.380929   
     26. B(H  23,C   6)                  1.0811         0.372100   
     27. B(H  24,C   7)                  1.0823         0.370498   
     28. B(H  25,C  10)                  1.0825         0.370203   
     29. B(H  26,C  12)                  1.1112         0.333092   
     30. B(H  27,C  12)                  1.1110         0.333401   
     31. B(H  28,C  12)                  1.1115         0.332760   
     32. B(H  29,C  13)                  1.1132         0.330697   
     33. B(H  30,C  13)                  1.1122         0.331851   
     34. B(H  31,C  14)                  1.1123         0.331813   
     35. B(H  32,C  14)                  1.1137         0.330124   
     36. B(H  33,C  16)                  1.1101         0.334498   
     37. B(H  34,C  16)                  1.1127         0.331320   
     38. B(H  35,C  16)                  1.1113         0.332987   
     39. B(H  36,C  17)                  1.1124         0.331697   
     40. B(H  37,N  18)                  1.0444         0.381315   
     41. A(H  19,C   0,H  21)          108.8720         0.284111   
     42. A(H  20,C   0,H  21)          108.8772         0.284108   
     43. A(N   1,C   0,H  21)          109.8489         0.326717   
     44. A(N   1,C   0,H  20)          109.8241         0.326723   
     45. A(H  19,C   0,H  20)          109.5695         0.284116   
     46. A(N   1,C   0,H  19)          109.8274         0.326726   
     47. A(C   2,N   1,H  22)          118.9175         0.336537   
     48. A(C   0,N   1,H  22)          119.1138         0.331029   
     49. A(C   0,N   1,C   2)          121.9679         0.385230   
     50. A(O   3,C   2,O   4)          120.8226         0.446286   
     51. A(N   1,C   2,O   4)          119.0719         0.399537   
     52. A(N   1,C   2,O   3)          120.0501         0.437582   
     53. A(C   2,O   4,C   5)          125.3519         0.406757   
     54. A(C   6,C   5,C  10)          119.4215         0.422490   
     55. A(O   4,C   5,C  10)          118.3045         0.415844   
     56. A(O   4,C   5,C   6)          122.2448         0.412674   
     57. A(C   7,C   6,H  23)          118.6314         0.352244   
     58. A(C   5,C   6,H  23)          120.9265         0.349106   
     59. A(C   5,C   6,C   7)          120.4187         0.423240   
     60. A(C   6,C   7,H  24)          120.7851         0.351987   
     61. A(C   8,C   7,H  24)          120.8451         0.354451   
     62. A(C   6,C   7,C   8)          118.3686         0.430441   
     63. A(C   9,C   8,N  18)          111.8923         0.424293   
     64. A(C   7,C   8,C   9)          121.7672         0.441161   
     65. A(C   7,C   8,N  18)          126.3405         0.417134   
     66. A(C   8,C   9,C  10)          121.0352         0.439846   
     67. A(C   8,C   9,C  11)          110.2294         0.410770   
     68. A(C  10,C   9,C  11)          128.7341         0.402723   
     69. A(C   5,C  10,C   9)          118.9703         0.428404   
     70. A(C   9,C  10,H  25)          120.4357         0.353412   
     71. A(C   5,C  10,H  25)          120.5920         0.351350   
     72. A(C  13,C  11,C  17)          104.9811         0.358066   
     73. A(C  12,C  11,C  17)          111.9085         0.355541   
     74. A(C   9,C  11,C  17)          103.1395         0.363992   
     75. A(C  12,C  11,C  13)          112.2762         0.361871   
     76. A(C   9,C  11,C  13)          112.9116         0.370523   
     77. A(C   9,C  11,C  12)          111.1147         0.367882   
     78. A(H  26,C  12,H  28)          108.5518         0.283796   
     79. A(H  27,C  12,H  28)          108.5258         0.283837   
     80. A(C  11,C  12,H  28)          110.4651         0.318442   
     81. A(H  26,C  12,H  27)          108.5156         0.283881   
     82. A(C  11,C  12,H  27)          110.3663         0.318542   
     83. A(C  11,C  12,H  26)          110.3558         0.318494   
     84. A(C  14,C  13,H  30)          111.0070         0.322200   
     85. A(H  29,C  13,H  30)          108.3836         0.283358   
     86. A(C  11,C  13,H  30)          112.9666         0.320472   
     87. A(C  14,C  13,H  29)          108.8397         0.322016   
     88. A(C  11,C  13,H  29)          111.3414         0.320289   
     89. A(C  11,C  13,C  14)          104.2176         0.366511   
     90. A(H  31,C  14,H  32)          107.2807         0.283277   
     91. A(N  15,C  14,H  32)          113.1687         0.323494   
     92. A(C  13,C  14,H  32)          111.0147         0.321925   
     93. A(N  15,C  14,H  31)          108.4885         0.323765   
     94. A(C  13,C  14,H  31)          109.1321         0.322194   
     95. A(C  13,C  14,N  15)          107.6778         0.370467   
     96. A(C  16,N  15,C  17)          114.4662         0.367817   
     97. A(C  14,N  15,C  17)          105.3510         0.369206   
     98. A(C  14,N  15,C  16)          110.2435         0.370961   
     99. A(N  15,C  16,H  33)          110.1209         0.323029   
    100. A(H  34,C  16,H  35)          108.9388         0.283591   
    101. A(H  33,C  16,H  35)          106.3054         0.284012   
    102. A(N  15,C  16,H  35)          110.1779         0.322789   
    103. A(H  33,C  16,H  34)          109.7265         0.283791   
    104. A(N  15,C  16,H  34)          111.4330         0.322524   
    105. A(N  15,C  17,N  18)          113.5955         0.369769   
    106. A(C  11,C  17,N  18)          105.9339         0.362449   
    107. A(C  11,C  17,N  15)          108.1376         0.358859   
    108. A(N  18,C  17,H  36)          108.8243         0.324218   
    109. A(N  15,C  17,H  36)          108.6964         0.321130   
    110. A(C  11,C  17,H  36)          111.6830         0.315079   
    111. A(C  17,N  18,H  37)          125.8181         0.328930   
    112. A(C   8,N  18,H  37)          125.4613         0.340424   
    113. A(C   8,N  18,C  17)          108.6775         0.387134   
    114. D(C   2,N   1,C   0,H  19)    -60.5712         0.016266   
    115. D(H  22,N   1,C   0,H  19)    119.7393         0.016266   
    116. D(C   2,N   1,C   0,H  21)    179.7119         0.016266   
    117. D(C   2,N   1,C   0,H  20)     59.9908         0.016266   
    118. D(H  22,N   1,C   0,H  20)   -119.6987         0.016266   
    119. D(H  22,N   1,C   0,H  21)      0.0225         0.016266   
    120. D(O   4,C   2,N   1,H  22)     -1.2113         0.018364   
    121. D(O   3,C   2,N   1,H  22)   -178.5258         0.018364   
    122. D(O   4,C   2,N   1,C   0)    179.0986         0.018364   
    123. D(O   3,C   2,N   1,C   0)      1.7841         0.018364   
    124. D(C   5,O   4,C   2,N   1)    166.0796         0.020891   
    125. D(C   5,O   4,C   2,O   3)    -16.6273         0.020891   
    126. D(C  10,C   5,O   4,C   2)    152.0312         0.020571   
    127. D(C   6,C   5,O   4,C   2)    -29.9463         0.020571   
    128. D(C   7,C   6,C   5,O   4)   -179.5173         0.021700   
    129. D(H  23,C   6,C   5,C  10)    176.7022         0.021700   
    130. D(H  23,C   6,C   5,O   4)     -1.2989         0.021700   
    131. D(C   7,C   6,C   5,C  10)     -1.5162         0.021700   
    132. D(H  24,C   7,C   6,C   5)   -179.8286         0.024242   
    133. D(H  24,C   7,C   6,H  23)      1.9126         0.024242   
    134. D(C   8,C   7,C   6,H  23)   -177.6947         0.024242   
    135. D(C   8,C   7,C   6,C   5)      0.5641         0.024242   
    136. D(N  18,C   8,C   7,H  24)      0.9859         0.026446   
    137. D(C   9,C   8,C   7,C   6)      0.4586         0.026446   
    138. D(N  18,C   8,C   7,C   6)   -179.4071         0.026446   
    139. D(C   9,C   8,C   7,H  24)   -179.1485         0.026446   
    140. D(C  11,C   9,C   8,C   7)    179.1005         0.032432   
    141. D(C  10,C   9,C   8,N  18)    179.3644         0.032432   
    142. D(C  11,C   9,C   8,N  18)     -1.0162         0.032432   
    143. D(C  10,C   9,C   8,C   7)     -0.5190         0.032432   
    144. D(C   9,C  10,C   5,O   4)    179.5272         0.023742   
    145. D(H  25,C  10,C   9,C  11)      0.5108         0.025537   
    146. D(H  25,C  10,C   9,C   8)   -179.9470         0.025537   
    147. D(C   5,C  10,C   9,C  11)   -179.9967         0.025537   
    148. D(C   5,C  10,C   9,C   8)     -0.4545         0.025537   
    149. D(H  25,C  10,C   5,C   6)   -179.0609         0.023742   
    150. D(H  25,C  10,C   5,O   4)     -0.9811         0.023742   
    151. D(C   9,C  10,C   5,C   6)      1.4474         0.023742   
    152. D(C  17,C  11,C   9,C  10)   -177.5940         0.012744   
    153. D(C  17,C  11,C   9,C   8)      2.8241         0.012744   
    154. D(C  13,C  11,C   9,C  10)    -64.8355         0.012744   
    155. D(C  13,C  11,C   9,C   8)    115.5826         0.012744   
    156. D(C  12,C  11,C   9,C  10)     62.3481         0.012744   
    157. D(C  12,C  11,C   9,C   8)   -117.2338         0.012744   
    158. D(H  28,C  12,C  11,C  13)   -177.0698         0.010480   
    159. D(H  27,C  12,C  11,C  17)   -179.3243         0.010480   
    160. D(H  27,C  12,C  11,C  13)     62.9111         0.010480   
    161. D(H  27,C  12,C  11,C   9)    -64.6189         0.010480   
    162. D(H  28,C  12,C  11,C  17)    -59.3052         0.010480   
    163. D(H  28,C  12,C  11,C   9)     55.4003         0.010480   
    164. D(H  26,C  12,C  11,C  13)    -57.0250         0.010480   
    165. D(H  26,C  12,C  11,C   9)    175.4450         0.010480   
    166. D(H  26,C  12,C  11,C  17)     60.7395         0.010480   
    167. D(H  30,C  13,C  11,C  17)   -138.6286         0.011332   
    168. D(H  30,C  13,C  11,C  12)    -16.8240         0.011332   
    169. D(H  30,C  13,C  11,C   9)    109.7435         0.011332   
    170. D(H  29,C  13,C  11,C  17)     99.1408         0.011332   
    171. D(H  29,C  13,C  11,C  12)   -139.0546         0.011332   
    172. D(H  29,C  13,C  11,C   9)    -12.4870         0.011332   
    173. D(C  14,C  13,C  11,C  17)    -18.0299         0.011332   
    174. D(C  14,C  13,C  11,C  12)    103.7747         0.011332   
    175. D(C  14,C  13,C  11,C   9)   -129.6578         0.011332   
    176. D(N  15,C  14,C  13,C  11)     30.5732         0.012062   
    177. D(H  32,C  14,C  13,H  29)     36.0719         0.012062   
    178. D(H  32,C  14,C  13,C  11)    154.9615         0.012062   
    179. D(H  31,C  14,C  13,H  30)     34.9043         0.012062   
    180. D(H  31,C  14,C  13,H  29)    154.1121         0.012062   
    181. D(H  31,C  14,C  13,C  11)    -86.9982         0.012062   
    182. D(N  15,C  14,C  13,H  30)    152.4758         0.012062   
    183. D(H  32,C  14,C  13,H  30)    -83.1359         0.012062   
    184. D(N  15,C  14,C  13,H  29)    -88.3164         0.012062   
    185. D(C  17,N  15,C  14,H  32)   -153.7252         0.014769   
    186. D(C  17,N  15,C  14,H  31)     87.3414         0.014769   
    187. D(C  17,N  15,C  14,C  13)    -30.6462         0.014769   
    188. D(C  16,N  15,C  14,H  32)    -29.7387         0.014769   
    189. D(C  16,N  15,C  14,H  31)   -148.6721         0.014769   
    190. D(C  16,N  15,C  14,C  13)     93.3402         0.014769   
    191. D(H  35,C  16,N  15,C  17)    177.3801         0.014142   
    192. D(H  35,C  16,N  15,C  14)     58.8382         0.014142   
    193. D(H  34,C  16,N  15,C  17)     56.3337         0.014142   
    194. D(H  34,C  16,N  15,C  14)    -62.2081         0.014142   
    195. D(H  33,C  16,N  15,C  17)    -65.6713         0.014142   
    196. D(H  33,C  16,N  15,C  14)    175.7869         0.014142   
    197. D(H  36,C  17,N  15,C  16)    135.8060         0.013397   
    198. D(H  36,C  17,N  15,C  14)   -102.9206         0.013397   
    199. D(N  18,C  17,N  15,C  16)     14.5047         0.013397   
    200. D(C  11,C  17,N  15,C  16)   -102.7743         0.013397   
    201. D(C  11,C  17,N  15,C  14)     18.4992         0.013397   
    202. D(H  36,C  17,C  11,C  13)    119.7020         0.009349   
    203. D(H  36,C  17,C  11,C  12)     -2.3422         0.009349   
    204. D(H  36,C  17,C  11,C   9)   -121.8535         0.009349   
    205. D(N  18,C  17,C  11,C  13)   -121.9629         0.009349   
    206. D(N  18,C  17,C  11,C  12)    115.9929         0.009349   
    207. D(N  18,C  17,N  15,C  14)    135.7782         0.013397   
    208. D(N  18,C  17,C  11,C   9)     -3.5184         0.009349   
    209. D(N  15,C  17,C  11,C  13)      0.1479         0.009349   
    210. D(N  15,C  17,C  11,C  12)   -121.8963         0.009349   
    211. D(N  15,C  17,C  11,C   9)    118.5924         0.009349   
    212. D(H  37,N  18,C  17,H  36)    -54.3788         0.015031   
    213. D(H  37,N  18,C  17,C  11)   -174.5957         0.015031   
    214. D(C   8,N  18,C  17,H  36)    123.3355         0.015031   
    215. D(C   8,N  18,C  17,N  15)   -115.4348         0.015031   
    216. D(C   8,N  18,C  17,C  11)      3.1187         0.015031   
    217. D(H  37,N  18,C   8,C   9)    176.3037         0.021120   
    218. D(H  37,N  18,C   8,C   7)     -3.8194         0.021120   
    219. D(H  37,N  18,C  17,N  15)     66.8508         0.015031   
    220. D(C  17,N  18,C   8,C   9)     -1.4208         0.021120   
    221. D(C  17,N  18,C   8,C   7)    178.4561         0.021120   
    -----------------------------------------------------------------

Number of atoms                         .... 38
Number of degrees of freedom            .... 221

         *************************************************************
         *                GEOMETRY OPTIMIZATION CYCLE   1            *
         *************************************************************
---------------------------------
CARTESIAN COORDINATES (ANGSTROEM)
---------------------------------
  C      6.667919   -0.885930   -0.108318
  N      5.360490   -1.184679    0.462260
  C      4.181330   -0.479797    0.063833
  O      4.247726    0.408089   -0.830162
  O      2.952541   -0.829631    0.638063
  C      1.776435   -0.068638    0.564756
  C      1.795420    1.346364    0.467365
  C      0.594308    2.070921    0.406359
  C     -0.606500    1.366932    0.455950
  C     -0.638153    0.005234    0.570571
  C      0.542153   -0.740174    0.632207
  C     -2.058527   -0.478543    0.621988
  C     -2.360514   -1.169821    1.963337
  C     -2.433915   -1.349327   -0.575650
  C     -3.727792   -0.741286   -1.087938
  N     -3.690704    0.699472   -0.795400
  C     -3.155317    1.442396   -1.953746
  C     -2.883891    0.828169    0.443578
  N     -1.904003    1.920505    0.395982
  H      6.648726   -1.059003   -1.204942
  H      6.935367    0.172099    0.096602
  H      7.437161   -1.545405    0.345968
  H      5.281232   -1.932452    1.187476
  H      2.729398    1.890801    0.467317
  H      0.601895    3.150392    0.329210
  H      0.505765   -1.818289    0.722101
  H     -3.434426   -1.449489    2.020902
  H     -1.749689   -2.091728    2.069332
  H     -2.125840   -0.491205    2.811763
  H     -1.665114   -1.287456   -1.378334
  H     -2.575161   -2.419337   -0.306944
  H     -4.584295   -1.190760   -0.538831
  H     -3.873746   -0.965259   -2.169034
  H     -3.198812    2.534592   -1.760137
  H     -2.108028    1.142552   -2.180292
  H     -3.785032    1.259241   -2.850919
  H     -3.571699    1.000090    1.300735
  H     -2.126708    2.940358    0.362661

----------------------------
CARTESIAN COORDINATES (A.U.)
----------------------------
  NO LB      ZA    FRAG     MASS         X           Y           Z
   0 C     6.0000    0    12.011   12.600541   -1.674165   -0.204691
   1 N     7.0000    0    14.007   10.129858   -2.238719    0.873545
   2 C     6.0000    0    12.011    7.901569   -0.906685    0.120627
   3 O     8.0000    0    15.999    8.027039    0.771176   -1.568779
   4 O     8.0000    0    15.999    5.579494   -1.567775    1.205764
   5 C     6.0000    0    12.011    3.356976   -0.129707    1.067234
   6 C     6.0000    0    12.011    3.392852    2.544259    0.883192
   7 C     6.0000    0    12.011    1.123079    3.913474    0.767907
   8 C     6.0000    0    12.011   -1.146119    2.583127    0.861621
   9 C     6.0000    0    12.011   -1.205934    0.009891    1.078223
  10 C     6.0000    0    12.011    1.024521   -1.398726    1.194698
  11 C     6.0000    0    12.011   -3.890052   -0.904315    1.175387
  12 C     6.0000    0    12.011   -4.460725   -2.210641    3.710169
  13 C     6.0000    0    12.011   -4.599433   -2.549858   -1.087821
  14 C     6.0000    0    12.011   -7.044506   -1.400828   -2.055905
  15 N     7.0000    0    14.007   -6.974420    1.321811   -1.503088
  16 C     6.0000    0    12.011   -5.962685    2.725733   -3.692045
  17 C     6.0000    0    12.011   -5.449764    1.565013    0.838241
  18 N     7.0000    0    14.007   -3.598044    3.629228    0.748298
  19 H     1.0000    0     1.008   12.564271   -2.001226   -2.277010
  20 H     1.0000    0     1.008   13.105944    0.325220    0.182551
  21 H     1.0000    0     1.008   14.054198   -2.920392    0.653785
  22 H     1.0000    0     1.008    9.980082   -3.651805    2.244004
  23 H     1.0000    0     1.008    5.157815    3.573096    0.883101
  24 H     1.0000    0     1.008    1.137417    5.953378    0.622117
  25 H     1.0000    0     1.008    0.955757   -3.436068    1.364573
  26 H     1.0000    0     1.008   -6.490125   -2.739137    3.818951
  27 H     1.0000    0     1.008   -3.306433   -3.952793    3.910471
  28 H     1.0000    0     1.008   -4.017255   -0.928243    5.313462
  29 H     1.0000    0     1.008   -3.146609   -2.432939   -2.604674
  30 H     1.0000    0     1.008   -4.866349   -4.571884   -0.580040
  31 H     1.0000    0     1.008   -8.663062   -2.250210   -1.018243
  32 H     1.0000    0     1.008   -7.320319   -1.824075   -4.098880
  33 H     1.0000    0     1.008   -6.044879    4.789685   -3.326177
  34 H     1.0000    0     1.008   -3.983596    2.159110   -4.120155
  35 H     1.0000    0     1.008   -7.152674    2.379621   -5.387456
  36 H     1.0000    0     1.008   -6.749533    1.889896    2.458033
  37 H     1.0000    0     1.008   -4.018896    5.556471    0.685330

--------------------------------
INTERNAL COORDINATES (ANGSTROEM)
--------------------------------
 C      0   0   0     0.000000000000     0.00000000     0.00000000
 N      1   0   0     1.457456966475     0.00000000     0.00000000
 C      2   1   0     1.430391909182   121.96793642     0.00000000
 O      3   2   1     1.261735724245   120.05011724     1.78409083
 O      3   2   1     1.400730640408   119.07185384   179.09862394
 C      5   3   2     1.402750721096   125.35186991   166.07956779
 C      6   5   3     1.418476681906   122.24482367   330.05365500
 C      7   6   5     1.404056485626   120.41868885   180.48267518
 C      8   7   6     1.392838695710   118.36860258     0.56407732
 C      9   8   7     1.366880144436   121.76715809     0.45862399
 C     10   9   8     1.397338304276   121.03519596   359.48102700
 C     10   9   8     1.501381428383   110.22936051   179.10045108
 C     12  10   9     1.538921232960   111.11466235   242.76617169
 C     12  10   9     1.527585580007   112.91156206   115.58257822
 C     14  12  10     1.518641018725   104.21762403   230.34220576
 N     15  14  12     1.470624906546   107.67781918    30.57323424
 C     16  15  14     1.476597699193   110.24351284    93.34024816
 C     16  15  14     1.484108021426   105.35095635   329.35376364
 N      9   8   7     1.411932456728   126.34046792   180.59294534
 H      1   2   3     1.110363378338   109.82742533   299.42878594
 H      1   2   3     1.110381017464   109.82411929    59.99078637
 H      1   2   3     1.110412671030   109.84892264   179.71193790
 H      2   1   3     1.044693513309   119.11381288   180.31051894
 H      7   6   5     1.081076571644   120.92654225   358.70110074
 H      8   7   6     1.082250973948   120.78514641   180.17141539
 H     11  10   9     1.082467999991   120.43574519   180.05303022
 H     13  12  10     1.111222256433   110.35579629   175.44500134
 H     13  12  10     1.110970133396   110.36628821   295.38111641
 H     13  12  10     1.111493697332   110.46511518    55.40026315
 H     14  12  10     1.113186687891   111.34143466   347.51297465
 H     14  12  10     1.112238619655   112.96664580   109.74354681
 H     15  14  12     1.112269195444   109.13209152   273.00176418
 H     15  14  12     1.113658401872   111.01471287   154.96152503
 H     17  16  15     1.110075836293   110.12088188   175.78686838
 H     17  16  15     1.112674149953   111.43296060   297.79188074
 H     17  16  15     1.111308295289   110.17791648    58.83823524
 H     18  16  15     1.112364507594   108.69640453   257.07941829
 H     19   9   8     1.044417515975   125.46134317   356.18063953

---------------------------
INTERNAL COORDINATES (A.U.)
---------------------------
 C      0   0   0     0.000000000000     0.00000000     0.00000000
 N      1   0   0     2.754194518613     0.00000000     0.00000000
 C      2   1   0     2.703048972531   121.96793642     0.00000000
 O      3   2   1     2.384334972209   120.05011724     1.78409083
 O      3   2   1     2.646997297763   119.07185384   179.09862394
 C      5   3   2     2.650814697031   125.35186991   166.07956779
 C      6   5   3     2.680532456155   122.24482367   330.05365500
 C      7   6   5     2.653282234389   120.41868885   180.48267518
 C      8   7   6     2.632083683619   118.36860258     0.56407732
 C      9   8   7     2.583029130879   121.76715809     0.45862399
 C     10   9   8     2.640586711519   121.03519596   359.48102700
 C     10   9   8     2.837199722200   110.22936051   179.10045108
 C     12  10   9     2.908139671970   111.11466235   242.76617169
 C     12  10   9     2.886718392340   112.91156206   115.58257822
 C     14  12  10     2.869815621129   104.21762403   230.34220576
 N     15  14  12     2.779078319095   107.67781918    30.57323424
 C     16  15  14     2.790365261452   110.24351284    93.34024816
 C     16  15  14     2.804557713652   105.35095635   329.35376364
 N      9   8   7     2.668165662811   126.34046792   180.59294534
 H      1   2   3     2.098282694194   109.82742533   299.42878594
 H      1   2   3     2.098316027312   109.82411929    59.99078637
 H      1   2   3     2.098375843884   109.84892264   179.71193790
 H      2   1   3     1.974184634037   119.11381288   180.31051894
 H      7   6   5     2.042938650205   120.92654225   358.70110074
 H      8   7   6     2.045157948931   120.78514641   180.17141539
 H     11  10   9     2.045568068717   120.43574519   180.05303022
 H     13  12  10     2.099905738577   110.35579629   175.44500134
 H     13  12  10     2.099429295085   110.36628821   295.38111641
 H     13  12  10     2.100418687536   110.46511518    55.40026315
 H     14  12  10     2.103617976041   111.34143466   347.51297465
 H     14  12  10     2.101826386719   112.96664580   109.74354681
 H     15  14  12     2.101884166586   109.13209152   273.00176418
 H     15  14  12     2.104509386279   111.01471287   154.96152503
 H     17  16  15     2.097739318478   110.12088188   175.78686838
 H     17  16  15     2.102649419704   111.43296060   297.79188074
 H     17  16  15     2.100068328452   110.17791648    58.83823524
 H     18  16  15     2.102064280446   108.69640453   257.07941829
 H     19   9   8     1.973663074663   125.46134317   356.18063953

---------------------
BASIS SET INFORMATION
---------------------
There are 4 groups of distinct atoms

 Group   1 Type C   : 10s4p1d contracted to 3s2p1d pattern {631/31/1}
 Group   2 Type N   : 10s4p1d contracted to 3s2p1d pattern {631/31/1}
 Group   3 Type O   : 10s4p1d contracted to 3s2p1d pattern {631/31/1}
 Group   4 Type H   : 4s contracted to 2s pattern {31}

Atom   0C    basis set group =>   1
Atom   1N    basis set group =>   2
Atom   2C    basis set group =>   1
Atom   3O    basis set group =>   3
Atom   4O    basis set group =>   3
Atom   5C    basis set group =>   1
Atom   6C    basis set group =>   1
Atom   7C    basis set group =>   1
Atom   8C    basis set group =>   1
Atom   9C    basis set group =>   1
Atom  10C    basis set group =>   1
Atom  11C    basis set group =>   1
Atom  12C    basis set group =>   1
Atom  13C    basis set group =>   1
Atom  14C    basis set group =>   1
Atom  15N    basis set group =>   2
Atom  16C    basis set group =>   1
Atom  17C    basis set group =>   1
Atom  18N    basis set group =>   2
Atom  19H    basis set group =>   4
Atom  20H    basis set group =>   4
Atom  21H    basis set group =>   4
Atom  22H    basis set group =>   4
Atom  23H    basis set group =>   4
Atom  24H    basis set group =>   4
Atom  25H    basis set group =>   4
Atom  26H    basis set group =>   4
Atom  27H    basis set group =>   4
Atom  28H    basis set group =>   4
Atom  29H    basis set group =>   4
Atom  30H    basis set group =>   4
Atom  31H    basis set group =>   4
Atom  32H    basis set group =>   4
Atom  33H    basis set group =>   4
Atom  34H    basis set group =>   4
Atom  35H    basis set group =>   4
Atom  36H    basis set group =>   4
Atom  37H    basis set group =>   4
---------------------------------
AUXILIARY/J BASIS SET INFORMATION
---------------------------------
There are 4 groups of distinct atoms

 Group   1 Type C   : 12s5p4d2f1g contracted to 6s4p3d1f1g pattern {711111/2111/211/2/1}
 Group   2 Type N   : 12s5p4d2f1g contracted to 6s4p3d1f1g pattern {711111/2111/211/2/1}
 Group   3 Type O   : 12s5p4d2f1g contracted to 6s4p3d1f1g pattern {711111/2111/211/2/1}
 Group   4 Type H   : 5s2p1d contracted to 3s1p1d pattern {311/2/1}

Atom   0C    basis set group =>   1
Atom   1N    basis set group =>   2
Atom   2C    basis set group =>   1
Atom   3O    basis set group =>   3
Atom   4O    basis set group =>   3
Atom   5C    basis set group =>   1
Atom   6C    basis set group =>   1
Atom   7C    basis set group =>   1
Atom   8C    basis set group =>   1
Atom   9C    basis set group =>   1
Atom  10C    basis set group =>   1
Atom  11C    basis set group =>   1
Atom  12C    basis set group =>   1
Atom  13C    basis set group =>   1
Atom  14C    basis set group =>   1
Atom  15N    basis set group =>   2
Atom  16C    basis set group =>   1
Atom  17C    basis set group =>   1
Atom  18N    basis set group =>   2
Atom  19H    basis set group =>   4
Atom  20H    basis set group =>   4
Atom  21H    basis set group =>   4
Atom  22H    basis set group =>   4
Atom  23H    basis set group =>   4
Atom  24H    basis set group =>   4
Atom  25H    basis set group =>   4
Atom  26H    basis set group =>   4
Atom  27H    basis set group =>   4
Atom  28H    basis set group =>   4
Atom  29H    basis set group =>   4
Atom  30H    basis set group =>   4
Atom  31H    basis set group =>   4
Atom  32H    basis set group =>   4
Atom  33H    basis set group =>   4
Atom  34H    basis set group =>   4
Atom  35H    basis set group =>   4
Atom  36H    basis set group =>   4
Atom  37H    basis set group =>   4

======================   ALLOCATED NODES   ======================
	gpua091: flags=0x11 slots=1 max_slots=0 slots_inuse=0 state=UP
=================================================================


           ************************************************************
           *        Program running with 16 parallel MPI-processes    *
           *              working on a common directory               *
           ************************************************************
------------------------------------------------------------------------------
                           ORCA GTO INTEGRAL CALCULATION
                           -- RI-GTO INTEGRALS CHOSEN --
------------------------------------------------------------------------------
------------------------------------------------------------------------------
                   ___                                                        
                  /   \      - P O W E R E D   B Y -                         
                 /     \                                                     
                 |  |  |   _    _      __       _____    __    __             
                 |  |  |  | |  | |    /  \     |  _  \  |  |  /  |          
                  \  \/   | |  | |   /    \    | | | |  |  | /  /          
                 / \  \   | |__| |  /  /\  \   | |_| |  |  |/  /          
                |  |  |   |  __  | /  /__\  \  |    /   |      \           
                |  |  |   | |  | | |   __   |  |    \   |  |\   \          
                \     /   | |  | | |  |  |  |  | |\  \  |  | \   \       
                 \___/    |_|  |_| |__|  |__|  |_| \__\ |__|  \__/        
                                                                              
                      - O R C A' S   B I G   F R I E N D -                    
                                      &                                       
                       - I N T E G R A L  F E E D E R -                       
                                                                              
 v1 FN, 2020, v2 2021                                                         
------------------------------------------------------------------------------


Reading SHARK input file compound_medoid_11/compound_medoid_11.SHARKINP.tmp ... ok
----------------------
SHARK INTEGRAL PACKAGE
----------------------

Number of atoms                             ...     38
Number of basis functions                   ...    304
Number of shells                            ...    152
Maximum angular momentum                    ...      2
Integral batch strategy                     ... SHARK/LIBINT Hybrid
RI-J (if used) integral strategy            ... SPLIT-RIJ (Revised 2003 algorithm where possible)
Printlevel                                  ...      1
Contraction scheme used                     ... SEGMENTED contraction
Coulomb Range Separation                    ... NOT USED
Exchange Range Separation                   ... NOT USED
Finite Nucleus Model                        ... NOT USED
Auxiliary Coulomb fitting basis             ... AVAILABLE
   # of basis functions in Aux-J            ...   1140
   # of shells in Aux-J                     ...    380
   Maximum angular momentum in Aux-J        ...      4
Auxiliary J/K fitting basis                 ... NOT available
Auxiliary Correlation fitting basis         ... NOT available
Auxiliary 'external' fitting basis          ... NOT available
Integral threshold                          ...     2.500000e-11
Primitive cut-off                           ...     2.500000e-12
Primitive pair pre-selection threshold      ...     2.500000e-12

Calculating pre-screening integrals         ... done (  0.1 sec) Dimension = 152
Organizing shell pair data                  ... done (  0.1 sec)
Shell pair information
Total number of shell pairs                 ...     11628
Shell pairs after pre-screening             ...      8428
Total number of primitive shell pairs       ...     65797
Primitive shell pairs kept                  ...     27451
          la=0 lb=0:   3106 shell pairs
          la=1 lb=0:   2798 shell pairs
          la=1 lb=1:    637 shell pairs
          la=2 lb=0:   1196 shell pairs
          la=2 lb=1:    564 shell pairs
          la=2 lb=2:    127 shell pairs

Calculating one electron integrals          ... done (  0.0 sec)
Calculating RI/J V-Matrix + Cholesky decomp.... done (  0.2 sec)
Calculating Nuclear repulsion               ... done (  0.0 sec) ENN=   1449.783672496892 Eh

SHARK setup successfully completed in   0.5 seconds

Maximum memory used throughout the entire GTOINT-calculation: 18.0 MB

======================   ALLOCATED NODES   ======================
	gpua091: flags=0x11 slots=1 max_slots=0 slots_inuse=0 state=UP
=================================================================


           ************************************************************
           *        Program running with 16 parallel MPI-processes    *
           *              working on a common directory               *
           ************************************************************
-------------------------------------------------------------------------------
                                 ORCA SCF
-------------------------------------------------------------------------------

------------
SCF SETTINGS
------------
Hamiltonian:
 Density Functional     Method          .... DFT(GTOs)
 Exchange Functional    Exchange        .... B88
   X-Alpha parameter    XAlpha          ....  0.666667
   Becke's b parameter  XBeta           ....  0.004200
 Correlation Functional Correlation     .... LYP
 LDA part of GGA corr.  LDAOpt          .... VWN-5
 Gradients option       PostSCFGGA      .... off
 Hybrid DFT is turned on
   Fraction HF Exchange ScalHFX         ....  0.200000
   Scaling of DF-GGA-X  ScalDFX         ....  0.720000
   Scaling of DF-GGA-C  ScalDFC         ....  0.810000
   Scaling of DF-LDA-C  ScalLDAC        ....  1.000000
   Perturbative correction              ....  0.000000
   Density functional embedding theory  .... OFF
   NL short-range parameter             ....  4.800000
 RI-approximation to the Coulomb term is turned on
   Number of AuxJ basis functions       .... 1140
   RIJ-COSX (HFX calculated with COS-X)).... on


General Settings:
 Integral files         IntName         .... compound_medoid_11/compound_medoid_11
 Hartree-Fock type      HFTyp           .... RHF
 Total Charge           Charge          ....    0
 Multiplicity           Mult            ....    1
 Number of Electrons    NEL             ....  140
 Basis Dimension        Dim             ....  304
 Nuclear Repulsion      ENuc            ....   1449.7836724969 Eh

Convergence Acceleration:
 DIIS                   CNVDIIS         .... on
   Start iteration      DIISMaxIt       ....    12
   Startup error        DIISStart       ....  0.200000
   # of expansion vecs  DIISMaxEq       ....     5
   Bias factor          DIISBfac        ....   1.050
   Max. coefficient     DIISMaxC        ....  10.000
 Trust-Rad. Augm. Hess. CNVTRAH         .... auto
   Auto Start mean grad. ratio tolernc. ....  1.125000
   Auto Start start iteration           ....    20
   Auto Start num. interpolation iter.  ....    10
   Max. Number of Micro iterations      ....    16
   Max. Number of Macro iterations      .... Maxiter - #DIIS iter
   Number of Davidson start vectors     ....     2
   Converg. threshold I  (grad. norm)   ....   1.000e-05
   Converg. threshold II (energy diff.) ....   1.000e-08
   Grad. Scal. Fac. for Micro threshold ....   0.100
   Minimum threshold for Micro iter.    ....   0.010
   NR start threshold (gradient norm)   ....   0.001
   Initial trust radius                 ....   0.400
   Minimum AH scaling param. (alpha)    ....   1.000
   Maximum AH scaling param. (alpha)    .... 1000.000
   Orbital update algorithm             .... Taylor
   White noise on init. David. guess    .... on
   Maximum white noise                  ....   0.010
   Quad. conv. algorithm                .... NR
 SOSCF                  CNVSOSCF        .... on
   Start iteration      SOSCFMaxIt      ....   150
   Startup grad/error   SOSCFStart      ....  0.003300
 Level Shifting         CNVShift        .... on
   Level shift para.    LevelShift      ....    0.2500
   Turn off err/grad.   ShiftErr        ....    0.0010
 Zerner damping         CNVZerner       .... off
 Static damping         CNVDamp         .... on
   Fraction old density DampFac         ....    0.7000
   Max. Damping (<1)    DampMax         ....    0.9800
   Min. Damping (>=0)   DampMin         ....    0.0000
   Turn off err/grad.   DampErr         ....    0.1000
 Fernandez-Rico         CNVRico         .... off

SCF Procedure:
 Maximum # iterations   MaxIter         ....   125
 SCF integral mode      SCFMode         .... Direct
   Integral package                     .... SHARK and LIBINT hybrid scheme
 Reset frequency        DirectResetFreq ....    20
 Integral Threshold     Thresh          ....  2.500e-11 Eh
 Primitive CutOff       TCut            ....  2.500e-12 Eh

Convergence Tolerance:
 Convergence Check Mode ConvCheckMode   .... Total+1el-Energy
 Convergence forced     ConvForced      .... 0
 Energy Change          TolE            ....  1.000e-08 Eh
 1-El. energy change                    ....  1.000e-05 Eh
 Orbital Gradient       TolG            ....  1.000e-05
 Orbital Rotation angle TolX            ....  1.000e-05
 DIIS Error             TolErr          ....  5.000e-07


Diagonalization of the overlap matrix:
Smallest eigenvalue                        ... 3.726e-04
Time for diagonalization                   ...    0.025 sec
Threshold for overlap eigenvalues          ... 1.000e-08
Number of eigenvalues below threshold      ... 0
Time for construction of square roots      ...    0.021 sec
Total time needed                          ...    0.048 sec

Time for model grid setup =    0.188 sec

------------------------------
INITIAL GUESS: MODEL POTENTIAL
------------------------------
Loading Hartree-Fock densities                     ... done
Calculating cut-offs                               ... done
Initializing the effective Hamiltonian             ... done
Setting up the integral package (SHARK)            ... done
Starting the Coulomb interaction                   ... done (   0.1 sec)
Reading the grid                                   ... done
Mapping shells                                     ... done
Starting the XC term evaluation                    ... done (   0.0 sec)
  promolecular density results
     # of electrons  =    139.987969334
     EX              =   -113.741788574
     EC              =     -4.748528540
     EX+EC           =   -118.490317114
Transforming the Hamiltonian                       ... done (   0.0 sec)
Diagonalizing the Hamiltonian                      ... done (   0.0 sec)
Back transforming the eigenvectors                 ... done (   0.0 sec)
Now organizing SCF variables                       ... done
                      ------------------
                      INITIAL GUESS DONE (   0.4 sec)
                      ------------------
-------------------
DFT GRID GENERATION
-------------------

General Integration Accuracy     IntAcc      ... 4.388
Radial Grid Type                 RadialGrid  ... OptM3 with GC (2021)
Angular Grid (max. ang.)         AngularGrid ... 4 (Lebedev-302)
Angular grid pruning method      GridPruning ... 4 (adaptive)
Weight generation scheme         WeightScheme... Becke
Basis function cutoff            BFCut       ... 1.0000e-11
Integration weight cutoff        WCut        ... 1.0000e-14
Angular grids for H and He will be reduced by one unit
Partially contracted basis set               ... off
Rotationally invariant grid construction     ... off

Total number of grid points                  ...   173817
Total number of batches                      ...     2736
Average number of points per batch           ...       63
Average number of grid points per atom       ...     4574
Time for grid setup =    0.887 sec

--------------------
COSX GRID GENERATION
--------------------

GRIDX 1
-------
General Integration Accuracy     IntAcc      ... 3.816
Radial Grid Type                 RadialGrid  ... OptM3 with GC (2021)
Angular Grid (max. ang.)         AngularGrid ... 1 (Lebedev-50)
Angular grid pruning method      GridPruning ... 4 (adaptive)
Weight generation scheme         WeightScheme... Becke
Basis function cutoff            BFCut       ... 1.0000e-11
Integration weight cutoff        WCut        ... 1.0000e-14
Angular grids for H and He will be reduced by one unit
Partially contracted basis set               ... on
Rotationally invariant grid construction     ... off

Total number of grid points                  ...    22140
Total number of batches                      ...      367
Average number of points per batch           ...       60
Average number of grid points per atom       ...      583
UseSFitting                                  ... on

GRIDX 2
-------
General Integration Accuracy     IntAcc      ... 4.020
Radial Grid Type                 RadialGrid  ... OptM3 with GC (2021)
Angular Grid (max. ang.)         AngularGrid ... 2 (Lebedev-110)
Angular grid pruning method      GridPruning ... 4 (adaptive)
Weight generation scheme         WeightScheme... Becke
Basis function cutoff            BFCut       ... 1.0000e-11
Integration weight cutoff        WCut        ... 1.0000e-14
Angular grids for H and He will be reduced by one unit
Partially contracted basis set               ... on
Rotationally invariant grid construction     ... off

Total number of grid points                  ...    47352
Total number of batches                      ...      759
Average number of points per batch           ...       62
Average number of grid points per atom       ...     1246
UseSFitting                                  ... on

GRIDX 3
-------
General Integration Accuracy     IntAcc      ... 4.338
Radial Grid Type                 RadialGrid  ... OptM3 with GC (2021)
Angular Grid (max. ang.)         AngularGrid ... 3 (Lebedev-194)
Angular grid pruning method      GridPruning ... 4 (adaptive)
Weight generation scheme         WeightScheme... Becke
Basis function cutoff            BFCut       ... 1.0000e-11
Integration weight cutoff        WCut        ... 1.0000e-14
Angular grids for H and He will be reduced by one unit
Partially contracted basis set               ... on
Rotationally invariant grid construction     ... off

Total number of grid points                  ...   103418
Total number of batches                      ...     1637
Average number of points per batch           ...       63
Average number of grid points per atom       ...     2722
UseSFitting                                  ... on

Time for X-Grid setup             =    0.815 sec

--------------
SCF ITERATIONS
--------------
ITER       Energy         Delta-E        Max-DP      RMS-DP      [F,P]     Damp
               ***  Starting incremental Fock matrix formation  ***
  0   -858.5360433229   0.000000000000 0.10148780  0.00188038  0.2832337 0.7000
  1   -858.7891784496  -0.253135126768 0.05164331  0.00127216  0.0956986 0.7000
                               ***Turning on DIIS***
  2   -858.8837468388  -0.094568389199 0.06253283  0.00204119  0.0365126 0.0000
  3   -859.0372288166  -0.153481977796 0.03311299  0.00090165  0.0488967 0.0000
  4   -859.0696415828  -0.032412766142 0.01546502  0.00030417  0.0240494 0.0000
  5   -859.0721609726  -0.002519389794 0.00653259  0.00009709  0.0092639 0.0000
                      *** Initiating the SOSCF procedure ***
                           *** Shutting down DIIS ***
                      *** Re-Reading the Fockian *** 
                      *** Removing any level shift *** 
ITER      Energy       Delta-E        Grad      Rot      Max-DP    RMS-DP
  6   -859.07231266  -0.0001516922  0.000322  0.000322  0.001208  0.000031
               *** Restarting incremental Fock matrix formation ***
  7   -859.07237666  -0.0000639976  0.000136  0.000586  0.000628  0.000020
  8   -859.07237565   0.0000010074  0.000310  0.000542  0.000569  0.000011
  9   -859.07237899  -0.0000033356  0.000063  0.000231  0.000241  0.000005
 10   -859.07237884   0.0000001538  0.000063  0.000075  0.000172  0.000003
 11   -859.07237914  -0.0000003040  0.000014  0.000047  0.000058  0.000001
 12   -859.07237914   0.0000000013  0.000022  0.000027  0.000043  0.000001
                  ***Gradient check signals convergence***
              ***Rediagonalizing the Fockian in SOSCF/NRSCF***

               *****************************************************
               *                     SUCCESS                       *
               *           SCF CONVERGED AFTER  13 CYCLES          *
               *****************************************************

Old exchange energy                            =    -23.124326510 Eh
New exchange energy                            =    -23.124326859 Eh
Exchange energy change after final integration =     -0.000000349 Eh
Total energy after final integration           =   -859.072379493 Eh
Final COS-X integration done in                =     2.458 sec

----------------
TOTAL SCF ENERGY
----------------

Total Energy       :         -859.07237949 Eh          -23376.54789 eV

Components:
Nuclear Repulsion  :         1449.78367250 Eh           39450.61936 eV
Electronic Energy  :        -2308.85605199 Eh          -62827.16725 eV
One Electron Energy:        -4047.92211793 Eh         -110149.56072 eV
Two Electron Energy:         1739.06606594 Eh           47322.39348 eV
Max COSX asymmetry :            0.00000173 Eh               0.00005 eV

Virial components:
Potential Energy   :        -1712.39097383 Eh          -46596.52732 eV
Kinetic Energy     :          853.31859434 Eh           23219.97943 eV
Virial Ratio       :            2.00674283


DFT components:
N(Alpha)           :       69.999963746188 electrons
N(Beta)            :       69.999963746188 electrons
N(Total)           :      139.999927492376 electrons
E(X)               :      -91.841999423129 Eh       
E(C)               :       -5.588664695078 Eh       
E(XC)              :      -97.430664118207 Eh       
DFET-embed. en.    :        0.000000000000 Eh       

---------------
SCF CONVERGENCE
---------------

  Last Energy change         ...   -4.8161e-09  Tolerance :   1.0000e-08
  Last MAX-Density change    ...    4.4409e-15  Tolerance :   1.0000e-07
  Last RMS-Density change    ...    4.8054e-17  Tolerance :   5.0000e-09
  Last Orbital Gradient      ...    2.0869e-06  Tolerance :   1.0000e-05
  Last Orbital Rotation      ...    5.4654e-06  Tolerance :   1.0000e-05

             **** THE GBW FILE WAS UPDATED (compound_medoid_11/compound_medoid_11.gbw) ****
             **** DENSITY compound_medoid_11/compound_medoid_11.scfp WAS UPDATED ****
             **** ENERGY FILE WAS UPDATED (compound_medoid_11/compound_medoid_11.en.tmp) ****
             **** THE GBW FILE WAS UPDATED (compound_medoid_11/compound_medoid_11.gbw) ****
             **** DENSITY compound_medoid_11/compound_medoid_11.scfp WAS UPDATED ****
----------------
ORBITAL ENERGIES
----------------

  NO   OCC          E(Eh)            E(eV) 
   0   2.0000     -19.183042      -521.9971 
   1   2.0000     -19.104531      -519.8607 
   2   2.0000     -14.362066      -390.8117 
   3   2.0000     -14.329528      -389.9263 
   4   2.0000     -14.304783      -389.2529 
   5   2.0000     -10.335306      -281.2380 
   6   2.0000     -10.234450      -278.4935 
   7   2.0000     -10.231784      -278.4210 
   8   2.0000     -10.217222      -278.0248 
   9   2.0000     -10.204290      -277.6729 
  10   2.0000     -10.191799      -277.3330 
  11   2.0000     -10.188869      -277.2532 
  12   2.0000     -10.187996      -277.2295 
  13   2.0000     -10.176527      -276.9174 
  14   2.0000     -10.172126      -276.7976 
  15   2.0000     -10.171417      -276.7783 
  16   2.0000     -10.168839      -276.7082 
  17   2.0000     -10.168547      -276.7002 
  18   2.0000     -10.167554      -276.6732 
  19   2.0000      -1.075825       -29.2747 
  20   2.0000      -0.983621       -26.7657 
  21   2.0000      -0.951122       -25.8813 
  22   2.0000      -0.901826       -24.5399 
  23   2.0000      -0.890339       -24.2274 
  24   2.0000      -0.829472       -22.5711 
  25   2.0000      -0.799994       -21.7689 
  26   2.0000      -0.739768       -20.1301 
  27   2.0000      -0.727505       -19.7964 
  28   2.0000      -0.713695       -19.4206 
  29   2.0000      -0.693216       -18.8634 
  30   2.0000      -0.679409       -18.4877 
  31   2.0000      -0.650849       -17.7105 
  32   2.0000      -0.623587       -16.9687 
  33   2.0000      -0.608415       -16.5558 
  34   2.0000      -0.568106       -15.4589 
  35   2.0000      -0.563607       -15.3365 
  36   2.0000      -0.554442       -15.0871 
  37   2.0000      -0.525597       -14.3022 
  38   2.0000      -0.516058       -14.0426 
  39   2.0000      -0.479487       -13.0475 
  40   2.0000      -0.468986       -12.7618 
  41   2.0000      -0.465813       -12.6754 
  42   2.0000      -0.458885       -12.4869 
  43   2.0000      -0.451718       -12.2919 
  44   2.0000      -0.445761       -12.1298 
  45   2.0000      -0.432819       -11.7776 
  46   2.0000      -0.425270       -11.5722 
  47   2.0000      -0.423212       -11.5162 
  48   2.0000      -0.415165       -11.2972 
  49   2.0000      -0.409663       -11.1475 
  50   2.0000      -0.401153       -10.9159 
  51   2.0000      -0.396707       -10.7949 
  52   2.0000      -0.392621       -10.6838 
  53   2.0000      -0.384279       -10.4568 
  54   2.0000      -0.382099       -10.3975 
  55   2.0000      -0.367451        -9.9988 
  56   2.0000      -0.361474        -9.8362 
  57   2.0000      -0.359364        -9.7788 
  58   2.0000      -0.347338        -9.4515 
  59   2.0000      -0.337957        -9.1963 
  60   2.0000      -0.329606        -8.9690 
  61   2.0000      -0.322805        -8.7840 
  62   2.0000      -0.313747        -8.5375 
  63   2.0000      -0.303415        -8.2563 
  64   2.0000      -0.265068        -7.2129 
  65   2.0000      -0.254571        -6.9272 
  66   2.0000      -0.245719        -6.6864 
  67   2.0000      -0.231925        -6.3110 
  68   2.0000      -0.201978        -5.4961 
  69   2.0000      -0.176956        -4.8152 
  70   0.0000       0.007131         0.1941 
  71   0.0000       0.020220         0.5502 
  72   0.0000       0.053726         1.4620 
  73   0.0000       0.075419         2.0523 
  74   0.0000       0.077151         2.0994 
  75   0.0000       0.087658         2.3853 
  76   0.0000       0.094866         2.5814 
  77   0.0000       0.113152         3.0790 
  78   0.0000       0.120681         3.2839 
  79   0.0000       0.123250         3.3538 
  80   0.0000       0.132577         3.6076 
  81   0.0000       0.139192         3.7876 
  82   0.0000       0.143147         3.8952 
  83   0.0000       0.148892         4.0516 
  84   0.0000       0.159005         4.3268 
  85   0.0000       0.168900         4.5960 
  86   0.0000       0.172114         4.6835 
  87   0.0000       0.174609         4.7514 
  88   0.0000       0.177118         4.8196 
  89   0.0000       0.178817         4.8659 
  90   0.0000       0.187631         5.1057 
  91   0.0000       0.192317         5.2332 
  92   0.0000       0.196593         5.3496 
  93   0.0000       0.202492         5.5101 
  94   0.0000       0.212027         5.7695 
  95   0.0000       0.213617         5.8128 
  96   0.0000       0.218751         5.9525 
  97   0.0000       0.228452         6.2165 
  98   0.0000       0.247313         6.7297 
  99   0.0000       0.255475         6.9518 
 100   0.0000       0.264494         7.1972 
 101   0.0000       0.275933         7.5085 
 102   0.0000       0.285769         7.7762 
 103   0.0000       0.307848         8.3770 
 104   0.0000       0.314678         8.5628 
 105   0.0000       0.336886         9.1671 
 106   0.0000       0.339389         9.2352 
 107   0.0000       0.351518         9.5653 
 108   0.0000       0.361963         9.8495 
 109   0.0000       0.387225        10.5369 
 110   0.0000       0.388808        10.5800 
 111   0.0000       0.429279        11.6813 
 112   0.0000       0.493836        13.4380 
 113   0.0000       0.507680        13.8147 
 114   0.0000       0.511286        13.9128 
 115   0.0000       0.520971        14.1764 
 116   0.0000       0.531362        14.4591 
 117   0.0000       0.535699        14.5771 
 118   0.0000       0.539535        14.6815 
 119   0.0000       0.541041        14.7225 
 120   0.0000       0.554202        15.0806 
 121   0.0000       0.561190        15.2708 
 122   0.0000       0.563890        15.3442 
 123   0.0000       0.568594        15.4722 
 124   0.0000       0.573180        15.5970 
 125   0.0000       0.577317        15.7096 
 126   0.0000       0.581898        15.8343 
 127   0.0000       0.598506        16.2862 
 128   0.0000       0.605558        16.4781 
 129   0.0000       0.611726        16.6459 
 130   0.0000       0.616755        16.7827 
 131   0.0000       0.633644        17.2423 
 132   0.0000       0.638703        17.3800 
 133   0.0000       0.641093        17.4450 
 134   0.0000       0.651288        17.7224 
 135   0.0000       0.668970        18.2036 
 136   0.0000       0.676455        18.4073 
 137   0.0000       0.681441        18.5429 
 138   0.0000       0.694935        18.9101 
 139   0.0000       0.704711        19.1762 
 140   0.0000       0.717087        19.5129 
 141   0.0000       0.736730        20.0474 
 142   0.0000       0.738872        20.1057 
 143   0.0000       0.747803        20.3488 
 144   0.0000       0.775547        21.1037 
 145   0.0000       0.777787        21.1647 
 146   0.0000       0.784357        21.3434 
 147   0.0000       0.800701        21.7882 
 148   0.0000       0.808371        21.9969 
 149   0.0000       0.809922        22.0391 
 150   0.0000       0.830896        22.6098 
 151   0.0000       0.836861        22.7722 
 152   0.0000       0.842488        22.9253 
 153   0.0000       0.846468        23.0336 
 154   0.0000       0.847405        23.0591 
 155   0.0000       0.850563        23.1450 
 156   0.0000       0.857888        23.3443 
 157   0.0000       0.860972        23.4282 
 158   0.0000       0.868960        23.6456 
 159   0.0000       0.869760        23.6674 
 160   0.0000       0.875782        23.8312 
 161   0.0000       0.892386        24.2831 
 162   0.0000       0.893241        24.3063 
 163   0.0000       0.898783        24.4571 
 164   0.0000       0.910272        24.7698 
 165   0.0000       0.920514        25.0485 
 166   0.0000       0.923442        25.1281 
 167   0.0000       0.931567        25.3492 
 168   0.0000       0.934566        25.4308 
 169   0.0000       0.938433        25.5361 
 170   0.0000       0.946265        25.7492 
 171   0.0000       0.948417        25.8077 
 172   0.0000       0.959609        26.1123 
 173   0.0000       0.975268        26.5384 
 174   0.0000       0.984414        26.7873 
 175   0.0000       0.995990        27.1023 
 176   0.0000       1.003211        27.2987 
 177   0.0000       1.008821        27.4514 
 178   0.0000       1.024904        27.8891 
 179   0.0000       1.033607        28.1259 
 180   0.0000       1.054703        28.6999 
 181   0.0000       1.063564        28.9411 
 182   0.0000       1.074001        29.2251 
 183   0.0000       1.099581        29.9211 
 184   0.0000       1.115144        30.3446 
 185   0.0000       1.126534        30.6545 
 186   0.0000       1.132405        30.8143 
 187   0.0000       1.162036        31.6206 
 188   0.0000       1.168950        31.8087 
 189   0.0000       1.195496        32.5311 
 190   0.0000       1.222481        33.2654 
 191   0.0000       1.243271        33.8311 
 192   0.0000       1.257114        34.2078 
 193   0.0000       1.269454        34.5436 
 194   0.0000       1.281223        34.8639 
 195   0.0000       1.319129        35.8953 
 196   0.0000       1.331103        36.2212 
 197   0.0000       1.356353        36.9082 
 198   0.0000       1.362373        37.0721 
 199   0.0000       1.394772        37.9537 
 200   0.0000       1.405583        38.2479 
 201   0.0000       1.410206        38.3736 
 202   0.0000       1.458842        39.6971 
 203   0.0000       1.463992        39.8372 
 204   0.0000       1.470346        40.0101 
 205   0.0000       1.488035        40.4915 
 206   0.0000       1.500117        40.8203 
 207   0.0000       1.517841        41.3026 
 208   0.0000       1.529858        41.6295 
 209   0.0000       1.571347        42.7585 
 210   0.0000       1.583523        43.0899 
 211   0.0000       1.617142        44.0047 
 212   0.0000       1.637120        44.5483 
 213   0.0000       1.647796        44.8388 
 214   0.0000       1.674200        45.5573 
 215   0.0000       1.692591        46.0577 
 216   0.0000       1.705246        46.4021 
 217   0.0000       1.737339        47.2754 
 218   0.0000       1.761204        47.9248 
 219   0.0000       1.773812        48.2679 
 220   0.0000       1.793055        48.7915 
 221   0.0000       1.815542        49.4034 
 222   0.0000       1.832079        49.8534 
 223   0.0000       1.832529        49.8657 
 224   0.0000       1.842794        50.1450 
 225   0.0000       1.847170        50.2641 
 226   0.0000       1.869975        50.8846 
 227   0.0000       1.872917        50.9647 
 228   0.0000       1.886510        51.3345 
 229   0.0000       1.892414        51.4952 
 230   0.0000       1.898166        51.6517 
 231   0.0000       1.902650        51.7737 
 232   0.0000       1.912610        52.0448 
 233   0.0000       1.917116        52.1674 
 234   0.0000       1.935051        52.6554 
 235   0.0000       1.942732        52.8644 
 236   0.0000       1.958064        53.2816 
 237   0.0000       1.973803        53.7099 
 238   0.0000       1.985282        54.0223 
 239   0.0000       1.992794        54.2267 
 240   0.0000       1.996187        54.3190 
 241   0.0000       2.006790        54.6075 
 242   0.0000       2.020358        54.9767 
 243   0.0000       2.026553        55.1453 
 244   0.0000       2.052031        55.8386 
 245   0.0000       2.059564        56.0436 
 246   0.0000       2.069321        56.3091 
 247   0.0000       2.077665        56.5361 
 248   0.0000       2.095514        57.0218 
 249   0.0000       2.104102        57.2555 
 250   0.0000       2.109943        57.4145 
 251   0.0000       2.123150        57.7739 
 252   0.0000       2.133258        58.0489 
 253   0.0000       2.150080        58.5066 
 254   0.0000       2.168306        59.0026 
 255   0.0000       2.183186        59.4075 
 256   0.0000       2.197309        59.7918 
 257   0.0000       2.226370        60.5826 
 258   0.0000       2.228622        60.6439 
 259   0.0000       2.239478        60.9393 
 260   0.0000       2.260096        61.5004 
 261   0.0000       2.275986        61.9327 
 262   0.0000       2.285344        62.1874 
 263   0.0000       2.305842        62.7451 
 264   0.0000       2.315222        63.0004 
 265   0.0000       2.330012        63.4029 
 266   0.0000       2.333764        63.5050 
 267   0.0000       2.355456        64.0952 
 268   0.0000       2.372759        64.5660 
 269   0.0000       2.403427        65.4006 
 270   0.0000       2.437953        66.3401 
 271   0.0000       2.462370        67.0045 
 272   0.0000       2.468596        67.1739 
 273   0.0000       2.484941        67.6187 
 274   0.0000       2.489836        67.7519 
 275   0.0000       2.496743        67.9398 
 276   0.0000       2.512092        68.3575 
 277   0.0000       2.546476        69.2931 
 278   0.0000       2.567262        69.8587 
 279   0.0000       2.578368        70.1610 
 280   0.0000       2.598479        70.7082 
 281   0.0000       2.609689        71.0133 
 282   0.0000       2.639108        71.8138 
 283   0.0000       2.644434        71.9587 
 284   0.0000       2.680308        72.9349 
 285   0.0000       2.694117        73.3107 
 286   0.0000       2.716139        73.9099 
 287   0.0000       2.720106        74.0179 
 288   0.0000       2.737851        74.5007 
 289   0.0000       2.775308        75.5200 
 290   0.0000       2.779608        75.6370 
 291   0.0000       2.794281        76.0363 
 292   0.0000       2.816962        76.6534 
 293   0.0000       2.833644        77.1074 
 294   0.0000       2.880152        78.3729 
 295   0.0000       2.883685        78.4691 
 296   0.0000       2.916815        79.3706 
 297   0.0000       2.945832        80.1602 
 298   0.0000       2.977023        81.0089 
 299   0.0000       3.029352        82.4329 
 300   0.0000       3.112841        84.7047 
 301   0.0000       3.160476        86.0009 
 302   0.0000       3.289225        89.5044 
 303   0.0000       3.470600        94.4398 

                    ********************************
                    * MULLIKEN POPULATION ANALYSIS *
                    ********************************

-----------------------
MULLIKEN ATOMIC CHARGES
-----------------------
   0 C :   -0.275037
   1 N :   -0.602252
   2 C :    0.722614
   3 O :   -0.481427
   4 O :   -0.541282
   5 C :    0.340477
   6 C :   -0.162638
   7 C :   -0.198979
   8 C :    0.340164
   9 C :    0.090593
  10 C :   -0.245395
  11 C :    0.011941
  12 C :   -0.455107
  13 C :   -0.291081
  14 C :   -0.151639
  15 N :   -0.372387
  16 C :   -0.290524
  17 C :    0.180259
  18 N :   -0.703663
  19 H :    0.176490
  20 H :    0.173920
  21 H :    0.150315
  22 H :    0.333503
  23 H :    0.150918
  24 H :    0.121610
  25 H :    0.128145
  26 H :    0.140394
  27 H :    0.144751
  28 H :    0.151486
  29 H :    0.149117
  30 H :    0.134412
  31 H :    0.132127
  32 H :    0.137912
  33 H :    0.131174
  34 H :    0.135663
  35 H :    0.143361
  36 H :    0.132224
  37 H :    0.317840
Sum of atomic charges:    0.0000000

--------------------------------
MULLIKEN REDUCED ORBITAL CHARGES
--------------------------------
  0 C s       :     3.259469  s :     3.259469
      pz      :     1.056606  p :     2.967188
      px      :     0.827669
      py      :     1.082914
      dz2     :     0.013343  d :     0.048379
      dxz     :     0.009830
      dyz     :     0.003733
      dx2y2   :     0.010416
      dxy     :     0.011056
  1 N s       :     3.574497  s :     3.574497
      pz      :     1.460627  p :     3.999274
      px      :     1.111110
      py      :     1.427537
      dz2     :     0.003549  d :     0.028481
      dxz     :     0.005296
      dyz     :     0.006386
      dx2y2   :     0.006804
      dxy     :     0.006446
  2 C s       :     2.890421  s :     2.890421
      pz      :     0.785672  p :     2.260696
      px      :     0.696927
      py      :     0.778097
      dz2     :     0.023525  d :     0.126270
      dxz     :     0.033051
      dyz     :     0.014720
      dx2y2   :     0.024138
      dxy     :     0.030836
  3 O s       :     3.884042  s :     3.884042
      pz      :     1.391742  p :     4.571828
      px      :     1.770625
      py      :     1.409462
      dz2     :     0.007656  d :     0.025556
      dxz     :     0.003240
      dyz     :     0.007365
      dx2y2   :     0.004139
      dxy     :     0.003157
  4 O s       :     3.866197  s :     3.866197
      pz      :     1.731510  p :     4.649614
      px      :     1.233055
      py      :     1.685048
      dz2     :     0.003522  d :     0.025472
      dxz     :     0.006781
      dyz     :     0.003026
      dx2y2   :     0.004397
      dxy     :     0.007746
  5 C s       :     3.076951  s :     3.076951
      pz      :     1.046147  p :     2.518636
      px      :     0.675787
      py      :     0.796702
      dz2     :     0.004688  d :     0.063936
      dxz     :     0.010391
      dyz     :     0.007788
      dx2y2   :     0.018742
      dxy     :     0.022326
  6 C s       :     3.202808  s :     3.202808
      pz      :     1.000359  p :     2.924599
      px      :     0.988695
      py      :     0.935545
      dz2     :     0.003623  d :     0.035231
      dxz     :     0.003442
      dyz     :     0.005777
      dx2y2   :     0.011195
      dxy     :     0.011195
  7 C s       :     3.175138  s :     3.175138
      pz      :     1.069681  p :     2.988687
      px      :     0.965360
      py      :     0.953645
      dz2     :     0.003510  d :     0.035154
      dxz     :     0.006078
      dyz     :     0.002149
      dx2y2   :     0.013534
      dxy     :     0.009883
  8 C s       :     3.051336  s :     3.051336
      pz      :     0.962198  p :     2.547528
      px      :     0.709444
      py      :     0.875886
      dz2     :     0.004193  d :     0.060971
      dxz     :     0.014216
      dyz     :     0.008128
      dx2y2   :     0.017614
      dxy     :     0.016820
  9 C s       :     3.115594  s :     3.115594
      pz      :     1.025065  p :     2.752216
      px      :     0.841328
      py      :     0.885823
      dz2     :     0.003307  d :     0.041598
      dxz     :     0.006023
      dyz     :     0.006552
      dx2y2   :     0.015047
      dxy     :     0.010670
 10 C s       :     3.222870  s :     3.222870
      pz      :     1.041058  p :     2.987072
      px      :     0.986431
      py      :     0.959584
      dz2     :     0.003538  d :     0.035453
      dxz     :     0.007433
      dyz     :     0.002247
[...]
 11 C s       :     3.198757  s :     3.198757
      pz      :     0.907082  p :     2.728502
      px      :     0.928216
      py      :     0.893204
      dz2     :     0.010772  d :     0.047064
      dxz     :     0.007643
      dyz     :     0.010198
      dx2y2   :     0.007898
      dxy     :     0.010553
 12 C s       :     3.296709  s :     3.296709
      pz      :     1.004399  p :     3.124593
      px      :     1.058907
      py      :     1.061287
      dz2     :     0.008573  d :     0.035121
      dxz     :     0.002730
      dyz     :     0.009934
      dx2y2   :     0.005858
      dxy     :     0.008027
 13 C s       :     3.258724  s :     3.258724
      pz      :     0.991429  p :     3.005107
      px      :     1.012348
      py      :     1.001329
      dz2     :     0.005420  d :     0.037858
      dxz     :     0.010500
      dyz     :     0.007326
      dx2y2   :     0.009615
      dxy     :     0.004996
 14 C s       :     3.224709  s :     3.224709
      pz      :     1.050679  p :     2.876403
      px      :     1.003753
      py      :     0.821971
      dz2     :     0.011878  d :     0.054467
      dxz     :     0.007706
      dyz     :     0.007486
      dx2y2   :     0.014474
      dxy     :     0.012924
 15 N s       :     3.600529  s :     3.600529
      pz      :     1.030368  p :     3.724087
      px      :     1.507378
      py      :     1.186341
      dz2     :     0.009314  d :     0.038347
      dxz     :     0.009819
      dyz     :     0.005621
      dx2y2   :     0.008951
      dxy     :     0.004643
 16 C s       :     3.254705  s :     3.254705
      pz      :     0.965915  p :     3.009327
      px      :     0.998391
      py      :     1.045021
      dz2     :     0.012383  d :     0.049623
      dxz     :     0.011396
      dyz     :     0.005002
      dx2y2   :     0.013463
      dxy     :     0.007379
 17 C s       :     3.137183  s :     3.137183
      pz      :     0.847835  p :     2.654588
      px      :     0.955158
      py      :     0.851595
      dz2     :     0.016631  d :     0.073203
      dxz     :     0.019985
      dyz     :     0.012191
      dx2y2   :     0.010091
      dxy     :     0.014305
 18 N s       :     3.619026  s :     3.619026
      pz      :     1.701300  p :     3.991130
      px      :     1.153243
      py      :     1.136588
      dz2     :     0.003186  d :     0.034894
      dxz     :     0.005949
      dyz     :     0.006073
      dx2y2   :     0.011566
      dxy     :     0.008120
 19 H s       :     0.843768  s :     0.843768
 20 H s       :     0.799578  s :     0.799578
 21 H s       :     0.843741  s :     0.843741
 22 H s       :     0.664491  s :     0.664491
 23 H s       :     0.854020  s :     0.854020
 24 H s       :     0.877015  s :     0.877015
 25 H s       :     0.873490  s :     0.873490
 26 H s       :     0.861391  s :     0.861391
 27 H s       :     0.853089  s :     0.853089
 28 H s       :     0.842182  s :     0.842182
 29 H s       :     0.850345  s :     0.850345
 30 H s       :     0.864420  s :     0.864420
 31 H s       :     0.859960  s :     0.859960
 32 H s       :     0.858815  s :     0.858815
 33 H s       :     0.861959  s :     0.861959
 34 H s       :     0.857895  s :     0.857895
 35 H s       :     0.850124  s :     0.850124
 36 H s       :     0.863920  s :     0.863920
 37 H s       :     0.686071  s :     0.686071


                     *******************************
                     * LOEWDIN POPULATION ANALYSIS *
                     *******************************

----------------------
LOEWDIN ATOMIC CHARGES
----------------------
   0 C :   -0.279183
   1 N :   -0.225096
   2 C :    0.143853
   3 O :   -0.269127
   4 O :   -0.147099
   5 C :    0.056978
   6 C :   -0.128738
   7 C :   -0.166888
   8 C :    0.026812
   9 C :   -0.035094
  10 C :   -0.142666
  11 C :   -0.031369
  12 C :   -0.347205
  13 C :   -0.241021
  14 C :   -0.160758
  15 N :   -0.192555
  16 C :   -0.285510
  17 C :   -0.000624
  18 N :   -0.234026
  19 H :    0.123716
  20 H :    0.156190
  21 H :    0.125920
  22 H :    0.257434
  23 H :    0.144919
  24 H :    0.130702
  25 H :    0.135937
  26 H :    0.120817
  27 H :    0.126366
  28 H :    0.131298
  29 H :    0.127016
  30 H :    0.123526
  31 H :    0.117494
  32 H :    0.124025
  33 H :    0.118913
  34 H :    0.107879
  35 H :    0.125646
  36 H :    0.117604
  37 H :    0.243917

-------------------------------
LOEWDIN REDUCED ORBITAL CHARGES
-------------------------------
  0 C s       :     2.959452  s :     2.959452
      pz      :     1.086916  p :     3.222004
      px      :     0.979937
      py      :     1.155151
      dz2     :     0.007146  d :     0.097727
      dxz     :     0.031127
      dyz     :     0.022413
      dx2y2   :     0.027842
      dxy     :     0.009198
  1 N s       :     3.121636  s :     3.121636
      pz      :     1.400836  p :     4.027373
      px      :     1.229032
      py      :     1.397504
      dz2     :     0.010202  d :     0.076087
      dxz     :     0.015538
      dyz     :     0.014537
      dx2y2   :     0.017029
      dxy     :     0.018780
  2 C s       :     2.798069  s :     2.798069
      pz      :     0.907538  p :     2.719189
      px      :     0.881698
      py      :     0.929953
      dz2     :     0.066647  d :     0.338889
      dxz     :     0.091631
      dyz     :     0.046102
      dx2y2   :     0.056159
      dxy     :     0.078351
  3 O s       :     3.554894  s :     3.554894
      pz      :     1.479855  p :     4.658423
      px      :     1.700410
      py      :     1.478158
      dz2     :     0.012827  d :     0.055811
      dxz     :     0.006479
      dyz     :     0.021437
      dx2y2   :     0.009025
      dxy     :     0.006043
  4 O s       :     3.451809  s :     3.451809
      pz      :     1.635379  p :     4.629126
      px      :     1.306647
      py      :     1.687101
      dz2     :     0.009149  d :     0.066163
      dxz     :     0.021891
      dyz     :     0.006317
      dx2y2   :     0.012357
      dxy     :     0.016450
  5 C s       :     2.850355  s :     2.850355
      pz      :     1.026416  p :     2.935294
      px      :     0.877721
      py      :     1.031157
      dz2     :     0.010602  d :     0.157372
      dxz     :     0.020607
      dyz     :     0.016852
      dx2y2   :     0.050754
      dxy     :     0.058556
  6 C s       :     2.916294  s :     2.916294
      pz      :     0.993540  p :     3.127999
      px      :     1.076179
      py      :     1.058280
      dz2     :     0.006602  d :     0.084445
      dxz     :     0.007343
      dyz     :     0.012348
      dx2y2   :     0.029321
      dxy     :     0.028832
  7 C s       :     2.908186  s :     2.908186
      pz      :     1.056475  p :     3.175401
      px      :     1.053107
      py      :     1.065818
      dz2     :     0.006428  d :     0.083302
      dxz     :     0.013350
      dyz     :     0.003192
      dx2y2   :     0.032984
      dxy     :     0.027347
  8 C s       :     2.851343  s :     2.851343
      pz      :     0.959230  p :     2.978682
      px      :     0.969913
      py      :     1.049539
      dz2     :     0.008829  d :     0.143164
      dxz     :     0.030077
      dyz     :     0.014439
      dx2y2   :     0.049943
      dxy     :     0.039875
  9 C s       :     2.871037  s :     2.871037
      pz      :     1.002345  p :     3.063531
      px      :     1.026398
      py      :     1.034788
      dz2     :     0.006504  d :     0.100527
      dxz     :     0.012201
      dyz     :     0.011380
      dx2y2   :     0.041362
      dxy     :     0.029080
 10 C s       :     2.913740  s :     2.913740
      pz      :     1.018373  p :     3.144146
      px      :     1.054943
      py      :     1.070830
      dz2     :     0.006551  d :     0.084780
      dxz     :     0.016167
      dyz     :     0.003370
      dx2y2   :     0.031525
      dxy     :     0.027167
 11 C s       :     2.878763  s :     2.878763
      pz      :     1.026631  p :     3.044780
      px      :     1.011535
      py      :     1.006614
      dz2     :     0.024379  d :     0.107827
      dxz     :     0.015181
      dyz     :     0.025594
      dx2y2   :     0.017362
      dxy     :     0.025310
 12 C s       :     2.980311  s :     2.980311
      pz      :     1.069057  p :     3.298574
      px      :     1.115484
      py      :     1.114033
      dz2     :     0.017285  d :     0.068319
      dxz     :     0.005688
      dyz     :     0.019865
      dx2y2   :     0.010702
      dxy     :     0.014780
 13 C s       :     2.952318  s :     2.952318
      pz      :     1.055114  p :     3.209498
      px      :     1.084917
      py      :     1.069467
      dz2     :     0.010908  d :     0.079205
      dxz     :     0.021631
      dyz     :     0.016683
      dx2y2   :     0.018958
      dxy     :     0.011025
 14 C s       :     2.935236  s :     2.935236
      pz      :     1.099660  p :     3.112083
      px      :     1.075929
      py      :     0.936493
      dz2     :     0.023451  d :     0.113440
      dxz     :     0.014979
      dyz     :     0.015109
      dx2y2   :     0.030558
      dxy     :     0.029343
 15 N s       :     3.183029  s :     3.183029
      pz      :     1.125162  p :     3.918715
      px      :     1.537796
      py      :     1.255757
      dz2     :     0.025286  d :     0.090811
      dxz     :     0.021553
      dyz     :     0.015079
      dx2y2   :     0.018674
      dxy     :     0.010219
 16 C s       :     2.967617  s :     2.967617
      pz      :     1.042412  p :     3.219209
      px      :     1.074453
      py      :     1.102344
      dz2     :     0.024147  d :     0.098684
      dxz     :     0.023427
      dyz     :     0.010172
      dx2y2   :     0.026814
      dxy     :     0.014124
 17 C s       :     2.891987  s :     2.891987
      pz      :     0.963063  p :     2.950206
      px      :     1.027359
      py      :     0.959785
      dz2     :     0.038673  d :     0.158431
      dxz     :     0.042729
      dyz     :     0.024132
      dx2y2   :     0.019155
      dxy     :     0.033742
 18 N s       :     3.141318  s :     3.141318
      pz      :     1.666039  p :     4.013659
      px      :     1.171949
      py      :     1.175671
      dz2     :     0.005172  d :     0.079049
      dxz     :     0.011522
      dyz     :     0.011040
      dx2y2   :     0.027972
      dxy     :     0.023344
 19 H s       :     0.876284  s :     0.876284
 20 H s       :     0.843810  s :     0.843810
 21 H s       :     0.874080  s :     0.874080
 22 H s       :     0.742566  s :     0.742566
 23 H s       :     0.855081  s :     0.855081
 24 H s       :     0.869298  s :     0.869298
 25 H s       :     0.864063  s :     0.864063
 26 H s       :     0.879183  s :     0.879183
 27 H s       :     0.873634  s :     0.873634
 28 H s       :     0.868702  s :     0.868702
 29 H s       :     0.872984  s :     0.872984
 30 H s       :     0.876474  s :     0.876474
 31 H s       :     0.882506  s :     0.882506
 32 H s       :     0.875975  s :     0.875975
 33 H s       :     0.881087  s :     0.881087
 34 H s       :     0.892121  s :     0.892121
 35 H s       :     0.874354  s :     0.874354
 36 H s       :     0.882396  s :     0.882396
 37 H s       :     0.756083  s :     0.756083


                      *****************************
                      * MAYER POPULATION ANALYSIS *
                      *****************************

  NA   - Mulliken gross atomic population
  ZA   - Total nuclear charge
  QA   - Mulliken gross atomic charge
  VA   - Mayer's total valence
  BVA  - Mayer's bonded valence
  FA   - Mayer's free valence

  ATOM       NA         ZA         QA         VA         BVA        FA
  0 C      6.3052     6.0000    -0.3052     3.7890     3.7890     0.0000
  1 N      7.5841     7.0000    -0.5841     2.9757     2.9757    -0.0000
  2 C      5.2928     6.0000     0.7072     4.0316     4.0316    -0.0000
  3 O      8.4638     8.0000    -0.4638     2.0855     2.0855    -0.0000
  4 O      8.5402     8.0000    -0.5402     1.9514     1.9514     0.0000
  5 C      5.6557     6.0000     0.3443     3.8190     3.8190     0.0000
  6 C      6.1537     6.0000    -0.1537     3.9254     3.9254    -0.0000
  7 C      6.2071     6.0000    -0.2071     3.8781     3.8781     0.0000
  8 C      5.6966     6.0000     0.3034     3.8939     3.8939    -0.0000
  9 C      5.9101     6.0000     0.0899     3.9538     3.9538     0.0000
 10 C      6.2497     6.0000    -0.2497     3.8852     3.8852    -0.0000
 11 C      5.9743     6.0000     0.0257     3.8435     3.8435     0.0000
 12 C      6.4564     6.0000    -0.4564     3.8573     3.8573    -0.0000
 13 C      6.3017     6.0000    -0.3017     3.8236     3.8236    -0.0000
 14 C      6.1556     6.0000    -0.1556     3.8554     3.8554    -0.0000
 15 N      7.3630     7.0000    -0.3630     2.9335     2.9335     0.0000
 16 C      6.3137     6.0000    -0.3137     3.8358     3.8358    -0.0000
 17 C      5.8650     6.0000     0.1350     3.8535     3.8535    -0.0000
 18 N      7.6451     7.0000    -0.6451     2.9277     2.9277    -0.0000
 19 H      0.8438     1.0000     0.1562     0.9264     0.9264    -0.0000
 20 H      0.7996     1.0000     0.2004     0.9433     0.9433    -0.0000
 21 H      0.8437     1.0000     0.1563     0.9278     0.9278    -0.0000
 22 H      0.6645     1.0000     0.3355     0.8612     0.8612    -0.0000
 23 H      0.8540     1.0000     0.1460     0.9444     0.9444     0.0000
 24 H      0.8770     1.0000     0.1230     0.9398     0.9398     0.0000
 25 H      0.8735     1.0000     0.1265     0.9444     0.9444    -0.0000
 26 H      0.8614     1.0000     0.1386     0.9365     0.9365    -0.0000
 27 H      0.8531     1.0000     0.1469     0.9354     0.9354    -0.0000
 28 H      0.8422     1.0000     0.1578     0.9333     0.9333    -0.0000
 29 H      0.8503     1.0000     0.1497     0.9370     0.9370    -0.0000
 30 H      0.8644     1.0000     0.1356     0.9376     0.9376    -0.0000
 31 H      0.8600     1.0000     0.1400     0.9303     0.9303    -0.0000
 32 H      0.8588     1.0000     0.1412     0.9394     0.9394    -0.0000
 33 H      0.8620     1.0000     0.1380     0.9414     0.9414    -0.0000
 34 H      0.8579     1.0000     0.1421     0.9304     0.9304    -0.0000
 35 H      0.8501     1.0000     0.1499     0.9338     0.9338    -0.0000
 36 H      0.8639     1.0000     0.1361     0.9307     0.9307    -0.0000
 37 H      0.6861     1.0000     0.3139     0.8695     0.8695    -0.0000

  Mayer bond orders larger than 0.100000
B(  0-C ,  1-N ) :   0.9540 B(  0-C , 19-H ) :   0.9443 B(  0-C , 20-H ) :   0.9278 
B(  0-C , 21-H ) :   0.9454 B(  1-N ,  2-C ) :   1.1190 B(  1-N , 22-H ) :   0.8286 
B(  2-C ,  3-O ) :   1.8673 B(  2-C ,  4-O ) :   0.9798 B(  4-O ,  5-C ) :   0.8043 
B(  5-C ,  6-C ) :   1.4300 B(  5-C , 10-C ) :   1.3801 B(  6-C ,  7-C ) :   1.4050 
B(  6-C , 23-H ) :   0.9158 B(  7-C ,  8-C ) :   1.3969 B(  7-C , 24-H ) :   0.9242 
B(  8-C ,  9-C ) :   1.3729 B(  8-C , 18-N ) :   0.9692 B(  9-C , 10-C ) :   1.4333 
B(  9-C , 11-C ) :   0.9687 B( 10-C , 25-H ) :   0.9194 B( 11-C , 12-C ) :   0.9967 
B( 11-C , 13-C ) :   0.9782 B( 11-C , 17-C ) :   0.9205 B( 12-C , 26-H ) :   0.9418 
B( 12-C , 27-H ) :   0.9454 B( 12-C , 28-H ) :   0.9442 B( 13-C , 14-C ) :   0.9723 
B( 13-C , 29-H ) :   0.9365 B( 13-C , 30-H ) :   0.9366 B( 14-C , 15-N ) :   0.9880 
B( 14-C , 31-H ) :   0.9382 B( 14-C , 32-H ) :   0.9415 B( 15-N , 16-C ) :   0.9816 
B( 15-N , 17-C ) :   0.9706 B( 16-C , 33-H ) :   0.9478 B( 16-C , 34-H ) :   0.9208 
B( 16-C , 35-H ) :   0.9482 B( 17-C , 18-N ) :   0.9915 B( 17-C , 36-H ) :   0.9247 
B( 18-N , 37-H ) :   0.8386 

-------
TIMINGS
-------

Total SCF time: 0 days 0 hours 0 min 14 sec 

Total time                  ....      14.503 sec
Sum of individual times     ....      13.832 sec  ( 95.4%)

Fock matrix formation       ....      11.804 sec  ( 81.4%)
  Split-RI-J                ....       1.326 sec  ( 11.2% of F)
  Chain of spheres X        ....       8.559 sec  ( 72.5% of F)
  XC integration            ....       1.672 sec  ( 14.2% of F)
    Basis function eval.    ....       0.291 sec  ( 17.4% of XC)
    Density eval.           ....       0.192 sec  ( 11.5% of XC)
    XC-Functional eval.     ....       0.052 sec  (  3.1% of XC)
    XC-Potential eval.      ....       0.109 sec  (  6.5% of XC)
Diagonalization             ....       0.018 sec  (  0.1%)
Density matrix formation    ....       0.069 sec  (  0.5%)
Population analysis         ....       0.039 sec  (  0.3%)
Initial guess               ....       0.026 sec  (  0.2%)
Orbital Transformation      ....       0.000 sec  (  0.0%)
Orbital Orthonormalization  ....       0.016 sec  (  0.1%)
DIIS solution               ....       0.011 sec  (  0.1%)
SOSCF solution              ....       0.141 sec  (  1.0%)
Grid generation             ....       1.724 sec  ( 11.9%)

Maximum memory used throughout the entire SCF-calculation: 74.9 MB

-------------------------   --------------------
FINAL SINGLE POINT ENERGY      -859.105716978247
-------------------------   --------------------

                                *** OPTIMIZATION RUN DONE ***

                            ***************************************
                            *     ORCA property calculations      *
                            ***************************************

                                    ---------------------
                                    Active property flags
                                    ---------------------
   (+) Dipole Moment


------------------------------------------------------------------------------
                       ORCA ELECTRIC PROPERTIES CALCULATION
------------------------------------------------------------------------------

Dipole Moment Calculation                       ... on
Quadrupole Moment Calculation                   ... off
Polarizability Calculation                      ... off
GBWName                                         ... compound_medoid_11/compound_medoid_11.gbw
Electron density                                ... compound_medoid_11/compound_medoid_11.scfp
The origin for moment calculation is the CENTER OF MASS  = ( 0.534553,  0.276490  0.268833)

-------------
DIPOLE MOMENT
-------------
                                X             Y             Z
Electronic contribution:      9.11056       4.85251       4.27506
Nuclear contribution   :     -8.96066      -5.59482      -4.02793
                        -----------------------------------------
Total Dipole Moment    :      0.14990      -0.74231       0.24714
                        -----------------------------------------
Magnitude (a.u.)       :      0.79660
Magnitude (Debye)      :      2.02479



--------------------
Rotational spectrum 
--------------------
 
Rotational constants in cm-1:     0.028630     0.006129     0.005970 
Rotational constants in MHz :   858.295227   183.738332   178.980958 

 Dipole components along the rotational axes: 
x,y,z [a.u.] :    -0.217650    -0.752653     0.143905 
x,y,z [Debye]:    -0.553223    -1.913092     0.365777 

 

======================   ALLOCATED NODES   ======================
	gpua091: flags=0x11 slots=1 max_slots=0 slots_inuse=0 state=UP
=================================================================

Timings for individual modules:

Sum of individual times         ...     1321.576 sec (=  22.026 min)
GTO integral calculation        ...      134.499 sec (=   2.242 min)  10.2 %
SCF iterations                  ...      886.110 sec (=  14.768 min)  67.0 %
SCF Gradient evaluation         ...      297.736 sec (=   4.962 min)  22.5 %
Geometry relaxation             ...        3.231 sec (=   0.054 min)   0.2 %
                             ****ORCA TERMINATED NORMALLY****
TOTAL RUN TIME: 0 days 0 hours 24 minutes 4 seconds 550 msec
