
                                 *****************
                                 * O   R   C   A *
                                 *****************

                                            #,                                       
                                            ###                                      
                                            ####                                     
                                            #####                                    
                                            ######                                   
                                           ########,                                 
                                     ,,################,,,,,                         
                               ,,#################################,,                 
                          ,,##########################################,,             
                       ,#########################################, ''#####,          
                    ,#############################################,,   '####,        
                  ,##################################################,,,,####,       
                ,###########''''           ''''###############################       
              ,#####''   ,,,,##########,,,,          '''####'''          '####       
            ,##' ,,,,###########################,,,                        '##       
           ' ,,###''''                  '''############,,,                           
         ,,##''                                '''############,,,,        ,,,,,,###''
      ,#''                                            '''#######################'''  
     '                                                          ''''####''''         
             ,#######,   #######,   ,#######,      ##                                
            ,#'     '#,  ##    ##  ,#'     '#,    #''#        ######   ,####,        
            ##       ##  ##   ,#'  ##            #'  '#       #        #'  '#        
            ##       ##  #######   ##           ,######,      #####,   #    #        
            '#,     ,#'  ##    ##  '#,     ,#' ,#      #,         ##   #,  ,#        
             '#######'   ##     ##  '#######'  #'      '#     #####' # '####'        



                  #######################################################
                  #                        -***-                        #
                  #          Department of theory and spectroscopy      #
                  #    Directorship and core code : Frank Neese         #
                  #        Max Planck Institute fuer Kohlenforschung    #
                  #                Kaiser Wilhelm Platz 1               #
                  #                 D-45470 Muelheim/Ruhr               #
                  #                      Germany                        #
                  #                                                     #
                  #                  All rights reserved                #
                  #                        -***-                        #
                  #######################################################


                         Program Version 5.0.1 -  RELEASE  -


 With contributions from (in alphabetic order):
   Daniel Aravena         : Magnetic Suceptibility
   Michael Atanasov       : Ab Initio Ligand Field Theory (pilot matlab implementation)
   Alexander A. Auer      : GIAO ZORA, VPT2 properties, NMR spectrum
   Ute Becker             : Parallelization
   Giovanni Bistoni       : ED, misc. LED, open-shell LED, HFLD
   Martin Brehm           : Molecular dynamics
   Dmytro Bykov           : SCF Hessian
   Vijay G. Chilkuri      : MRCI spin determinant printing, contributions to CSF-ICE
   Dipayan Datta          : RHF DLPNO-CCSD density
   Achintya Kumar Dutta   : EOM-CC, STEOM-CC
   Dmitry Ganyushin       : Spin-Orbit,Spin-Spin,Magnetic field MRCI
   Miquel Garcia          : C-PCM and meta-GGA Hessian, CC/C-PCM, Gaussian charge scheme
   Yang Guo               : DLPNO-NEVPT2, F12-NEVPT2, CIM, IAO-localization
   Andreas Hansen         : Spin unrestricted coupled pair/coupled cluster methods
   Benjamin Helmich-Paris : MC-RPA, TRAH-SCF, COSX integrals
   Lee Huntington         : MR-EOM, pCC
   Robert Izsak           : Overlap fitted RIJCOSX, COSX-SCS-MP3, EOM
   Marcus Kettner         : VPT2
   Christian Kollmar      : KDIIS, OOCD, Brueckner-CCSD(T), CCSD density, CASPT2, CASPT2-K
   Simone Kossmann        : Meta GGA functionals, TD-DFT gradient, OOMP2, MP2 Hessian
   Martin Krupicka        : Initial AUTO-CI
   Lucas Lang             : DCDCAS
   Marvin Lechner         : AUTO-CI (C++ implementation), FIC-MRCC
   Dagmar Lenk            : GEPOL surface, SMD
   Dimitrios Liakos       : Extrapolation schemes; Compound Job, initial MDCI parallelization
   Dimitrios Manganas     : Further ROCIS development; embedding schemes
   Dimitrios Pantazis     : SARC Basis sets
   Anastasios Papadopoulos: AUTO-CI, single reference methods and gradients
   Taras Petrenko         : DFT Hessian,TD-DFT gradient, ASA, ECA, R-Raman, ABS, FL, XAS/XES, NRVS
   Peter Pinski           : DLPNO-MP2, DLPNO-MP2 Gradient
   Christoph Reimann      : Effective Core Potentials
   Marius Retegan         : Local ZFS, SOC
   Christoph Riplinger    : Optimizer, TS searches, QM/MM, DLPNO-CCSD(T), (RO)-DLPNO pert. Triples
   Tobias Risthaus        : Range-separated hybrids, TD-DFT gradient, RPA, STAB
   Michael Roemelt        : Original ROCIS implementation
   Masaaki Saitow         : Open-shell DLPNO-CCSD energy and density
   Barbara Sandhoefer     : DKH picture change effects
   Avijit Sen             : IP-ROCIS
   Kantharuban Sivalingam : CASSCF convergence, NEVPT2, FIC-MRCI
   Bernardo de Souza      : ESD, SOC TD-DFT
   Georgi Stoychev        : AutoAux, RI-MP2 NMR, DLPNO-MP2 response
   Willem Van den Heuvel  : Paramagnetic NMR
   Boris Wezisla          : Elementary symmetry handling
   Frank Wennmohs         : Technical directorship


 We gratefully acknowledge several colleagues who have allowed us to
 interface, adapt or use parts of their codes:
   Stefan Grimme, W. Hujo, H. Kruse, P. Pracht,  : VdW corrections, initial TS optimization,
                  C. Bannwarth, S. Ehlert          DFT functionals, gCP, sTDA/sTD-DF
   Ed Valeev, F. Pavosevic, A. Kumar             : LibInt (2-el integral package), F12 methods
   Garnet Chan, S. Sharma, J. Yang, R. Olivares  : DMRG
   Ulf Ekstrom                                   : XCFun DFT Library
   Mihaly Kallay                                 : mrcc  (arbitrary order and MRCC methods)
   Jiri Pittner, Ondrej Demel                    : Mk-CCSD
   Frank Weinhold                                : gennbo (NPA and NBO analysis)
   Christopher J. Cramer and Donald G. Truhlar   : smd solvation model
   Lars Goerigk                                  : TD-DFT with DH, B97 family of functionals
   V. Asgeirsson, H. Jonsson                     : NEB implementation
   FAccTs GmbH                                   : IRC, NEB, NEB-TS, DLPNO-Multilevel, CI-OPT
                                                   MM, QMMM, 2- and 3-layer-ONIOM, Crystal-QMMM,
                                                   LR-CPCM, SF, NACMEs, symmetry and pop. for TD-DFT,
                                                   nearIR, NL-DFT gradient (VV10), updates on ESD,
                                                   ML-optimized integration grids
   S Lehtola, MJT Oliveira, MAL Marques          : LibXC Library
   Liviu Ungur et al                             : ANISO software


 Your calculation uses the libint2 library for the computation of 2-el integrals
 For citations please refer to: http://libint.valeyev.net

 Your ORCA version has been built with support for libXC version: 5.1.0
 For citations please refer to: https://tddft.org/programs/libxc/

 This ORCA versions uses:
   CBLAS   interface :  Fast vector & matrix operations
   LAPACKE interface :  Fast linear algebra routines
   SCALAPACK package :  Parallel linear algebra routines
   Shared memory     :  Shared parallel matrices
   BLAS/LAPACK       :  OpenBLAS 0.3.15  USE64BITINT DYNAMIC_ARCH NO_AFFINITY Zen SINGLE_THREADED
        Core in use  :  Zen
   Copyright (c) 2011-2014, The OpenBLAS Project


================================================================================

----- Orbital basis set information -----
Your calculation utilizes the basis: 6-31G(d)
   H-He, Li-Ne : W. J. Hehre, R. Ditchfield and J.A. Pople, J. Chem. Phys. 56, 2257 (1972).
                 Note: He and Ne are unpublished basis sets taken from the Gaussian program.
                 Note: Li and B from J. D. Dill and J. A. Pople, J. Chem. Phys. 62, 2921 (1975).
   Na - Ar     : M. M. Francl, W. J. Pietro, W. J. Hehre, J. S. Binkley, M. S. Gordon, 
                 D. J. DeFrees and J. A. Pople, J. Chem. Phys. 77, 3654 (1982).
   K - Zn      : V. A. Rassolov, J. A. Pople, M. A. Ratner, and T. L. Windus, J. Chem. Phys. 109, 1223 (1998).

----- AuxJ basis set information -----
Your calculation utilizes the auxiliary basis: def2/J
   F. Weigend, Phys. Chem. Chem. Phys. 8, 1057 (2006).

================================================================================
                                        WARNINGS
                       Please study these warnings very carefully!
================================================================================


WARNING: Geometry Optimization
  ===> : Switching off AutoStart
         For restart on a previous wavefunction, please use MOREAD

INFO   : the flag for use of the SHARK integral package has been found!

================================================================================
                                       INPUT FILE
================================================================================
NAME = compound_medoid_1/compound_medoid_1.inp
|  1> ! B3LYP 6-31G(d) Opt TightSCF
|  2> %pal
|  3>    nprocs 16
|  4> end
|  5> 
|  6> * xyz 0 1
|  7> C    2.554080  -2.969729  -0.030569
|  8> C    1.852607  -1.647066  -0.168988
|  9> C    1.835480  -1.036150  -1.372647
| 10> C    1.082214   0.253643  -1.618912
| 11> C   -0.328739  -0.081765  -2.140617
| 12> C   -1.280142  -0.528649  -1.051655
| 13> N   -2.473167  -1.083511  -1.417366
| 14> C   -3.386327  -1.499831  -0.498173
| 15> O   -4.474086  -2.011138  -0.876265
| 16> C   -3.119331  -1.365909   0.862953
| 17> C   -1.917327  -0.794493   1.271326
| 18> C   -0.986337  -0.335092   0.323056
| 19> C    0.363123   0.231170   0.784302
| 20> C    1.309554  -0.969101   1.077773
| 21> N    0.202210   1.024405   2.029771
| 22> C   -0.531486   2.284059   1.826509
| 23> C    0.176624   3.180341   0.807764
| 24> C    0.303635   2.448489  -0.524174
| 25> C    1.021733   1.095621  -0.327290
| 26> H    2.042741  -3.731480  -0.656134
| 27> H    2.545643  -3.316254   1.024466
| 28> H    3.610530  -2.874592  -0.359962
| 29> H    2.277947  -1.534504  -2.231528
| 30> H    1.626692   0.825657  -2.402021
| 31> H   -0.260341  -0.875976  -2.916748
| 32> H   -0.760220   0.807071  -2.647237
| 33> H   -2.694853  -1.197762  -2.433108
| 34> H   -3.834933  -1.706746   1.601151
| 35> H   -1.711902  -0.713825   2.331185
| 36> H    0.784812  -1.718859   1.709970
| 37> H    2.189347  -0.619631   1.660559
| 38> H    1.144221   1.268145   2.418859
| 39> H   -1.572339   2.076508   1.495905
| 40> H   -0.599013   2.823830   2.795563
| 41> H   -0.409775   4.113360   0.663934
| 42> H    1.185010   3.458726   1.185235
| 43> H    0.880659   3.077898  -1.235715
| 44> H   -0.717122   2.311610  -0.937933
| 45> H    2.068578   1.331527  -0.023242
| 46> *
| 47> 
| 48>                          ****END OF INPUT****
================================================================================

                       *****************************
                       * Geometry Optimization Run *
                       *****************************

Geometry optimization settings:
Update method            Update   .... BFGS
Choice of coordinates    CoordSys .... Z-matrix Internals
Initial Hessian          InHess   .... Almoef's Model

Convergence Tolerances:
Energy Change            TolE     ....  5.0000e-06 Eh
Max. Gradient            TolMAXG  ....  3.0000e-04 Eh/bohr
RMS Gradient             TolRMSG  ....  1.0000e-04 Eh/bohr
Max. Displacement        TolMAXD  ....  4.0000e-03 bohr
RMS Displacement         TolRMSD  ....  2.0000e-03 bohr
Strict Convergence                ....  False
------------------------------------------------------------------------------
                        ORCA OPTIMIZATION COORDINATE SETUP
------------------------------------------------------------------------------

The optimization will be done in new redundant internal coordinates
Making redundant internal coordinates   ...  (new redundants) done
Evaluating the initial hessian          ...  (Almloef) done
Evaluating the coordinates              ...  done
Calculating the B-matrix                .... done
Calculating the G-matrix                .... done
Diagonalizing the G-matrix              .... done
Small eigenvalue found = 2.309e-02
The first mode is                       ....  145
The number of degrees of freedom        ....  111

    -----------------------------------------------------------------
                    Redundant Internal Coordinates


    -----------------------------------------------------------------
         Definition                    Initial Value    Approx d2E/dq
    -----------------------------------------------------------------
      1. B(C   1,C   0)                  1.5035         0.411697   
      2. B(C   2,C   1)                  1.3499         0.723886   
      3. B(C   3,C   2)                  1.5138         0.396467   
      4. B(C   4,C   3)                  1.5413         0.358445   
      5. B(C   5,C   4)                  1.5135         0.396905   
      6. B(N   6,C   5)                  1.3656         0.612023   
      7. B(C   7,N   6)                  1.3609         0.622692   
      8. B(O   8,C   7)                  1.2600         0.902147   
      9. B(C   9,C   7)                  1.3935         0.616779   
     10. B(C  10,C   9)                  1.3922         0.619867   
     11. B(C  11,C  10)                  1.4061         0.588998   
     12. B(C  11,C   5)                  1.4190         0.561617   
     13. B(C  12,C  11)                  1.5344         0.367559   
     14. B(C  13,C  12)                  1.5564         0.338995   
     15. B(C  13,C   1)                  1.5195         0.388231   
     16. B(N  14,C  12)                  1.4854         0.394210   
     17. B(C  15,N  14)                  1.4719         0.414270   
     18. B(C  16,C  15)                  1.5305         0.372821   
     19. B(C  17,C  16)                  1.5251         0.380421   
     20. B(C  18,C  17)                  1.5442         0.354533   
     21. B(C  18,C  12)                  1.5546         0.341336   
     22. B(C  18,C   3)                  1.5430         0.356143   
     23. B(H  19,C   0)                  1.1104         0.334058   
     24. B(H  20,C   0)                  1.1105         0.333955   
     25. B(H  21,C   0)                  1.1107         0.333741   
     26. B(H  22,C   2)                  1.0871         0.363942   
     27. B(H  23,C   3)                  1.1122         0.331938   
     28. B(H  24,C   4)                  1.1126         0.331438   
     29. B(H  25,C   4)                  1.1103         0.334166   
     30. B(H  26,N   6)                  1.0459         0.379229   
     31. B(H  27,C   9)                  1.0831         0.369290   
     32. B(H  28,C  10)                  1.0826         0.370033   
     33. B(H  29,C  13)                  1.1123         0.331802   
     34. B(H  30,C  13)                  1.1117         0.332548   
     35. B(H  31,N  14)                  1.0479         0.376409   
     36. B(H  32,C  15)                  1.1116         0.332577   
     37. B(H  33,C  15)                  1.1113         0.333002   
     38. B(H  34,C  16)                  1.1113         0.332949   
     39. B(H  35,C  16)                  1.1121         0.331988   
     40. B(H  36,C  17)                  1.1115         0.332769   
     41. B(H  37,C  17)                  1.1099         0.334714   
     42. B(H  38,C  18)                  1.1153         0.328092   
     43. A(H  20,C   0,H  21)          108.4033         0.284040   
     44. A(H  19,C   0,H  21)          109.2497         0.284054   
     45. A(H  19,C   0,H  20)          108.5209         0.284082   
     46. A(C   1,C   0,H  19)          109.6799         0.325499   
     47. A(C   1,C   0,H  20)          111.0030         0.325482   
     48. A(C   1,C   0,H  21)          109.9444         0.325448   
     49. A(C   0,C   1,C   2)          119.0855         0.414750   
     50. A(C   2,C   1,C  13)          121.6777         0.410451   
     51. A(C   0,C   1,C  13)          118.9268         0.371905   
     52. A(C   3,C   2,H  22)          117.6833         0.328082   
     53. A(C   1,C   2,H  22)          119.4608         0.362984   
     54. A(C   1,C   2,C   3)          122.4762         0.411982   
     55. A(C   2,C   3,C  18)          110.3804         0.364078   
     56. A(C  18,C   3,H  23)          109.1444         0.317536   
     57. A(C   2,C   3,H  23)          108.0083         0.323152   
     58. A(C   4,C   3,C  18)          111.4823         0.357872   
     59. A(C   4,C   3,H  23)          108.7694         0.317870   
     60. A(C   2,C   3,C   4)          108.9763         0.364480   
     61. A(H  24,C   4,H  25)          106.0832         0.283763   
     62. A(C   5,C   4,H  24)          109.2560         0.323131   
     63. A(C   3,C   4,H  25)          109.6326         0.318216   
     64. A(C   3,C   4,H  24)          109.5847         0.317792   
     65. A(C   3,C   4,C   5)          113.3392         0.364549   
     66. A(C   5,C   4,H  25)          108.6852         0.323566   
     67. A(N   6,C   5,C  11)          119.7183         0.422672   
     68. A(C   4,C   5,C  11)          121.7762         0.394027   
     69. A(C   4,C   5,N   6)          118.4536         0.397460   
     70. A(C   7,N   6,H  26)          118.7052         0.350992   
     71. A(C   5,N   6,H  26)          119.3158         0.349970   
     72. A(C   5,N   6,C   7)          121.9785         0.427749   
     73. A(O   8,C   7,C   9)          119.8350         0.461108   
     74. A(N   6,C   7,O   8)          120.0480         0.458844   
     75. A(N   6,C   7,C   9)          120.1167         0.431159   
     76. A(C  10,C   9,H  27)          119.9783         0.354406   
     77. A(C   7,C   9,H  27)          120.5885         0.354106   
     78. A(C   7,C   9,C  10)          119.4323         0.433643   
     79. A(C  11,C  10,H  28)          120.6816         0.351474   
     80. A(C   9,C  10,H  28)          118.7898         0.354526   
     81. A(C   9,C  10,C  11)          120.5282         0.430066   
     82. A(C   5,C  11,C  12)          121.5768         0.388769   
     83. A(C   5,C  11,C  10)          118.1447         0.422533   
     84. A(C  10,C  11,C  12)          120.0106         0.392017   
     85. A(C  11,C  12,C  18)          111.2761         0.356818   
     86. A(C  13,C  12,N  14)          108.6388         0.358436   
     87. A(C  11,C  12,N  14)          110.7234         0.363415   
     88. A(N  14,C  12,C  18)          110.3956         0.358856   
     89. A(C  11,C  12,C  13)          107.8704         0.356401   
     90. A(C  13,C  12,C  18)          107.8201         0.351959   
     91. A(C  12,C  13,H  30)          109.7344         0.315092   
     92. A(C   1,C  13,H  30)          106.7120         0.322139   
     93. A(C  12,C  13,H  29)          109.8841         0.314977   
     94. A(C   1,C  13,H  29)          109.5242         0.322021   
     95. A(C   1,C  13,C  12)          113.9964         0.359734   
     96. A(H  29,C  13,H  30)          106.6966         0.283597   
     97. A(C  15,N  14,H  31)          107.4764         0.327504   
     98. A(C  12,N  14,H  31)          109.7643         0.324840   
     99. A(C  12,N  14,C  15)          113.2814         0.368627   
    100. A(N  14,C  15,C  16)          111.2516         0.367410   
    101. A(H  32,C  15,H  33)          107.0452         0.283760   
    102. A(N  14,C  15,H  33)          108.9991         0.323716   
    103. A(C  16,C  15,H  32)          110.1556         0.320016   
    104. A(N  14,C  15,H  32)          110.3664         0.323648   
    105. A(C  16,C  15,H  33)          108.9107         0.320083   
    106. A(C  15,C  16,C  17)          109.8058         0.364356   
    107. A(H  34,C  16,H  35)          108.1922         0.283675   
    108. A(C  17,C  16,H  35)          109.9405         0.320981   
    109. A(C  15,C  16,H  35)          109.8868         0.319924   
    110. A(C  17,C  16,H  34)          109.4994         0.321132   
    111. A(C  15,C  16,H  34)          109.4910         0.320075   
    112. A(H  36,C  17,H  37)          107.9772         0.284012   
    113. A(C  18,C  17,H  37)          111.5403         0.317733   
    114. A(C  16,C  17,H  37)          107.9491         0.321411   
    115. A(C  18,C  17,H  36)          109.6520         0.317431   
    116. A(C  16,C  17,H  36)          109.3048         0.321104   
    117. A(C  16,C  17,C  18)          110.3523         0.361239   
    118. A(C   3,C  18,C  12)          108.1633         0.354912   
    119. A(C  17,C  18,H  38)          106.6137         0.316701   
    120. A(C  12,C  18,H  38)          108.6830         0.314754   
    121. A(C   3,C  18,H  38)          107.8676         0.316934   
    122. A(C  12,C  18,C  17)          112.4152         0.354640   
    123. A(C   3,C  18,C  17)          112.9267         0.357206   
    124. D(C  13,C   1,C   0,H  21)   -117.5119         0.012550   
    125. D(C  13,C   1,C   0,H  20)      2.4260         0.012550   
    126. D(C  13,C   1,C   0,H  19)    122.3385         0.012550   
    127. D(C   2,C   1,C   0,H  20)    176.1414         0.012550   
    128. D(C   2,C   1,C   0,H  21)     56.2035         0.012550   
    129. D(C   2,C   1,C   0,H  19)    -63.9461         0.012550   
    130. D(C   3,C   2,C   1,C   0)    176.2151         0.037123   
    131. D(H  22,C   2,C   1,C  13)    176.9914         0.037123   
    132. D(C   3,C   2,C   1,C  13)    -10.2491         0.037123   
    133. D(H  22,C   2,C   1,C   0)      3.4557         0.037123   
    134. D(C  18,C   3,C   2,H  22)   -157.2744         0.011675   
    135. D(C   4,C   3,C   2,C   1)    -92.8987         0.011675   
    136. D(H  23,C   3,C   2,C   1)    149.0955         0.011675   
    137. D(C  18,C   3,C   2,C   1)     29.8442         0.011675   
    138. D(C   4,C   3,C   2,H  22)     79.9828         0.011675   
    139. D(H  23,C   3,C   2,H  22)    -38.0231         0.011675   
    140. D(H  25,C   4,C   3,H  23)    -43.1272         0.010314   
    141. D(H  24,C   4,C   3,H  23)     72.9199         0.010314   
    142. D(H  25,C   4,C   3,C   2)   -160.6525         0.010314   
    143. D(C   5,C   4,C   3,H  23)   -164.7532         0.010314   
    144. D(C   5,C   4,C   3,C   2)     77.7215         0.010314   
    145. D(H  25,C   4,C   3,C  18)     77.2685         0.010314   
    146. D(H  24,C   4,C   3,C   2)    -44.6053         0.010314   
    147. D(C   5,C   4,C   3,C  18)    -44.3576         0.010314   
    148. D(H  24,C   4,C   3,C  18)   -166.6844         0.010314   
    149. D(N   6,C   5,C   4,H  25)     69.6917         0.011700   
    150. D(C  11,C   5,C   4,C   3)     14.4739         0.011700   
    151. D(N   6,C   5,C   4,H  24)    -45.6439         0.011700   
    152. D(C  11,C   5,C   4,H  24)    136.9832         0.011700   
    153. D(N   6,C   5,C   4,C   3)   -168.1533         0.011700   
    154. D(C  11,C   5,C   4,H  25)   -107.6812         0.011700   
    155. D(H  26,N   6,C   5,C  11)    178.2352         0.030271   
    156. D(H  26,N   6,C   5,C   4)      0.8067         0.030271   
    157. D(C   7,N   6,C   5,C  11)     -2.0227         0.030271   
    158. D(C   7,N   6,C   5,C   4)   -179.4512         0.030271   
    159. D(C   9,C   7,N   6,H  26)    179.7783         0.031419   
    160. D(C   9,C   7,N   6,C   5)      0.0347         0.031419   
    161. D(O   8,C   7,N   6,C   5)   -179.7573         0.031419   
    162. D(O   8,C   7,N   6,H  26)     -0.0137         0.031419   
    163. D(H  27,C   9,C   7,O   8)      0.6131         0.026307   
    164. D(H  27,C   9,C   7,N   6)   -179.1793         0.026307   
    165. D(C  10,C   9,C   7,O   8)   -179.7231         0.026307   
    166. D(C  10,C   9,C   7,N   6)      0.4845         0.026307   
    167. D(H  28,C  10,C   9,H  27)      0.8907         0.026587   
    168. D(H  28,C  10,C   9,C   7)   -178.7751         0.026587   
    169. D(C  11,C  10,C   9,H  27)   -179.3171         0.026587   
    170. D(C  11,C  10,C   9,C   7)      1.0170         0.026587   
    171. D(C  12,C  11,C  10,C   9)   -177.0748         0.023870   
    172. D(C   5,C  11,C  10,H  28)    176.8624         0.023870   
    173. D(C   5,C  11,C  10,C   9)     -2.9258         0.023870   
    174. D(C  12,C  11,C   5,N   6)    177.4661         0.021610   
    175. D(C  12,C  11,C   5,C   4)     -5.1936         0.021610   
    176. D(C  10,C  11,C   5,N   6)      3.4135         0.021610   
    177. D(C  12,C  11,C  10,H  28)      2.7134         0.023870   
    178. D(C  10,C  11,C   5,C   4)   -179.2461         0.021610   
    179. D(C  18,C  12,C  11,C   5)     25.0561         0.010127   
    180. D(N  14,C  12,C  11,C  10)    -37.8263         0.010127   
    181. D(N  14,C  12,C  11,C   5)    148.2302         0.010127   
    182. D(C  13,C  12,C  11,C  10)     80.9255         0.010127   
    183. D(C  18,C  12,C  11,C  10)   -161.0004         0.010127   
    184. D(C  13,C  12,C  11,C   5)    -93.0180         0.010127   
    185. D(C  12,C  13,C   1,C   2)     18.2410         0.011219   
    186. D(C  12,C  13,C   1,C   0)   -168.2132         0.011219   
    187. D(H  30,C  13,C  12,C  18)     74.5596         0.009310   
    188. D(H  30,C  13,C  12,C  11)   -165.1679         0.009310   
    189. D(H  29,C  13,C  12,C  18)   -168.4187         0.009310   
    190. D(H  29,C  13,C  12,N  14)     71.9282         0.009310   
    191. D(H  29,C  13,C  12,C  11)    -48.1462         0.009310   
    192. D(C   1,C  13,C  12,C  18)    -45.0505         0.009310   
    193. D(C   1,C  13,C  12,N  14)   -164.7036         0.009310   
    194. D(C   1,C  13,C  12,C  11)     75.2220         0.009310   
    195. D(H  30,C  13,C   1,C   2)   -103.0616         0.011219   
    196. D(H  30,C  13,C   1,C   0)     70.4841         0.011219   
    197. D(H  30,C  13,C  12,N  14)    -45.0935         0.009310   
    198. D(H  29,C  13,C   1,C   2)    141.8043         0.011219   
    199. D(H  29,C  13,C   1,C   0)    -44.6500         0.011219   
    200. D(H  31,N  14,C  12,C  18)    -65.7332         0.013277   
    201. D(H  31,N  14,C  12,C  13)     52.2997         0.013277   
    202. D(H  31,N  14,C  12,C  11)    170.5850         0.013277   
    203. D(C  15,N  14,C  12,C  18)     54.3997         0.013277   
    204. D(C  15,N  14,C  12,C  13)    172.4326         0.013277   
    205. D(C  15,N  14,C  12,C  11)    -69.2821         0.013277   
    206. D(H  33,C  15,N  14,H  31)    -57.8531         0.014637   
    207. D(H  33,C  15,N  14,C  12)   -179.2803         0.014637   
    208. D(H  32,C  15,N  14,H  31)   -175.1438         0.014637   
    209. D(H  32,C  15,N  14,C  12)     63.4290         0.014637   
    210. D(C  16,C  15,N  14,H  31)     62.2582         0.014637   
    211. D(C  16,C  15,N  14,C  12)    -59.1689         0.014637   
    212. D(H  35,C  16,C  15,H  33)     57.9028         0.011101   
    213. D(H  35,C  16,C  15,H  32)    175.0197         0.011101   
    214. D(H  35,C  16,C  15,N  14)    -62.2609         0.011101   
    215. D(H  34,C  16,C  15,H  33)    -60.7969         0.011101   
    216. D(H  34,C  16,C  15,H  32)     56.3201         0.011101   
    217. D(H  34,C  16,C  15,N  14)    179.0394         0.011101   
    218. D(C  17,C  16,C  15,H  33)    178.9502         0.011101   
    219. D(C  17,C  16,C  15,H  32)    -63.9329         0.011101   
    220. D(C  17,C  16,C  15,N  14)     58.7865         0.011101   
    221. D(H  37,C  17,C  16,H  35)   -172.2824         0.011533   
    222. D(H  37,C  17,C  16,H  34)    -53.5453         0.011533   
    223. D(H  37,C  17,C  16,C  15)     66.7026         0.011533   
    224. D(H  36,C  17,C  16,H  35)    -55.0740         0.011533   
    225. D(H  36,C  17,C  16,H  34)     63.6631         0.011533   
    226. D(H  36,C  17,C  16,C  15)   -176.0891         0.011533   
    227. D(C  18,C  17,C  16,H  35)     65.5904         0.011533   
    228. D(C  18,C  17,C  16,H  34)   -175.6725         0.011533   
    229. D(C  18,C  17,C  16,C  15)    -55.4246         0.011533   
    230. D(C   3,C  18,C  17,H  36)    -64.1465         0.010107   
    231. D(C   3,C  18,C  17,C  16)    175.3971         0.010107   
    232. D(H  38,C  18,C  12,N  14)     66.6806         0.009427   
    233. D(H  38,C  18,C  12,C  11)   -169.9579         0.009427   
    234. D(C  17,C  18,C  12,N  14)    -51.0924         0.009427   
    235. D(C  17,C  18,C  12,C  13)   -169.6264         0.009427   
    236. D(C   3,C  18,C  12,N  14)   -176.4596         0.009427   
    237. D(C   3,C  18,C  12,C  13)     65.0064         0.009427   
    238. D(C   3,C  18,C  12,C  11)    -53.0980         0.009427   
    239. D(H  38,C  18,C   3,H  23)    -57.9632         0.010192   
    240. D(H  38,C  18,C   3,C   4)   -178.1383         0.010192   
    241. D(C  17,C  18,C  12,C  11)     72.2691         0.009427   
    242. D(H  38,C  18,C   3,C   2)     60.5966         0.010192   
    243. D(C  17,C  18,C   3,H  23)     59.5868         0.010192   
    244. D(C  17,C  18,C   3,C   4)    -60.5883         0.010192   
    245. D(H  38,C  18,C  12,C  13)    -51.8534         0.009427   
    246. D(C  17,C  18,C   3,C   2)    178.1466         0.010192   
    247. D(C  12,C  18,C   3,H  23)   -175.3487         0.010192   
    248. D(C  12,C  18,C   3,C   4)     64.4761         0.010192   
    249. D(C   3,C  18,C  17,H  37)     55.4108         0.010107   
    250. D(C  12,C  18,C   3,C   2)    -56.7890         0.010192   
    251. D(H  38,C  18,C  17,H  37)    173.6953         0.010107   
    252. D(H  38,C  18,C  17,H  36)     54.1380         0.010107   
    253. D(H  38,C  18,C  17,C  16)    -66.3185         0.010107   
    254. D(C  12,C  18,C  17,H  37)    -67.3131         0.010107   
    255. D(C  12,C  18,C  17,H  36)    173.1296         0.010107   
    256. D(C  12,C  18,C  17,C  16)     52.6731         0.010107   
    -----------------------------------------------------------------

Number of atoms                         .... 39
Number of degrees of freedom            .... 256

         *************************************************************
         *                GEOMETRY OPTIMIZATION CYCLE   1            *
         *************************************************************
---------------------------------
CARTESIAN COORDINATES (ANGSTROEM)
---------------------------------
  C      2.554080   -2.969729   -0.030569
  C      1.852607   -1.647066   -0.168988
  C      1.835480   -1.036150   -1.372647
  C      1.082214    0.253643   -1.618912
  C     -0.328739   -0.081765   -2.140617
  C     -1.280142   -0.528649   -1.051655
  N     -2.473167   -1.083511   -1.417366
  C     -3.386327   -1.499831   -0.498173
  O     -4.474086   -2.011138   -0.876265
  C     -3.119331   -1.365909    0.862953
  C     -1.917327   -0.794493    1.271326
  C     -0.986337   -0.335092    0.323056
  C      0.363123    0.231170    0.784302
  C      1.309554   -0.969101    1.077773
  N      0.202210    1.024405    2.029771
  C     -0.531486    2.284059    1.826509
  C      0.176624    3.180341    0.807764
  C      0.303635    2.448489   -0.524174
  C      1.021733    1.095621   -0.327290
  H      2.042741   -3.731480   -0.656134
  H      2.545643   -3.316254    1.024466
  H      3.610530   -2.874592   -0.359962
  H      2.277947   -1.534504   -2.231528
  H      1.626692    0.825657   -2.402021
  H     -0.260341   -0.875976   -2.916748
  H     -0.760220    0.807071   -2.647237
  H     -2.694853   -1.197762   -2.433108
  H     -3.834933   -1.706746    1.601151
  H     -1.711902   -0.713825    2.331185
  H      0.784812   -1.718859    1.709970
  H      2.189347   -0.619631    1.660559
  H      1.144221    1.268145    2.418859
  H     -1.572339    2.076508    1.495905
  H     -0.599013    2.823830    2.795563
  H     -0.409775    4.113360    0.663934
  H      1.185010    3.458726    1.185235
  H      0.880659    3.077898   -1.235715
  H     -0.717122    2.311610   -0.937933
  H      2.068578    1.331527   -0.023242

----------------------------
CARTESIAN COORDINATES (A.U.)
----------------------------
  NO LB      ZA    FRAG     MASS         X           Y           Z
   0 C     6.0000    0    12.011    4.826512   -5.611975   -0.057767
   1 C     6.0000    0    12.011    3.500920   -3.112504   -0.319341
   2 C     6.0000    0    12.011    3.468555   -1.958040   -2.593927
   3 C     6.0000    0    12.011    2.045088    0.479316   -3.059300
   4 C     6.0000    0    12.011   -0.621227   -0.154513   -4.045180
   5 C     6.0000    0    12.011   -2.419118   -0.999002   -1.987340
   6 N     7.0000    0    14.007   -4.673608   -2.047539   -2.678434
   7 C     6.0000    0    12.011   -6.399231   -2.834270   -0.941411
   8 O     8.0000    0    15.999   -8.454797   -3.800500   -1.655901
   9 C     6.0000    0    12.011   -5.894681   -2.581194    1.630745
  10 C     6.0000    0    12.011   -3.623223   -1.501374    2.402458
  11 C     6.0000    0    12.011   -1.863907   -0.633232    0.610487
  12 C     6.0000    0    12.011    0.686203    0.436848    1.482116
  13 C     6.0000    0    12.011    2.474698   -1.831335    2.036696
  14 N     7.0000    0    14.007    0.382122    1.935845    3.835711
  15 C     6.0000    0    12.011   -1.004363    4.316246    3.451602
  16 C     6.0000    0    12.011    0.333771    6.009974    1.526453
  17 C     6.0000    0    12.011    0.573787    4.626974   -0.990545
  18 C     6.0000    0    12.011    1.930796    2.070424   -0.618488
  19 H     1.0000    0     1.008    3.860221   -7.051475   -1.239914
  20 H     1.0000    0     1.008    4.810568   -6.266812    1.935960
  21 H     1.0000    0     1.008    6.822913   -5.432192   -0.680230
  22 H     1.0000    0     1.008    4.304696   -2.899792   -4.216977
  23 H     1.0000    0     1.008    3.074002    1.560266   -4.539162
  24 H     1.0000    0     1.008   -0.491973   -1.655355   -5.511855
  25 H     1.0000    0     1.008   -1.436608    1.525143   -5.002553
  26 H     1.0000    0     1.008   -5.092534   -2.263442   -4.597908
  27 H     1.0000    0     1.008   -7.246973   -3.225283    3.025737
  28 H     1.0000    0     1.008   -3.235026   -1.348934    4.405301
  29 H     1.0000    0     1.008    1.483080   -3.248173    3.231375
  30 H     1.0000    0     1.008    4.137266   -1.170933    3.138002
  31 H     1.0000    0     1.008    2.162264    2.396447    4.570981
  32 H     1.0000    0     1.008   -2.971290    3.924031    2.826851
  33 H     1.0000    0     1.008   -1.131971    5.336265    5.282848
  34 H     1.0000    0     1.008   -0.774363    7.773124    1.254653
  35 H     1.0000    0     1.008    2.239344    6.536045    2.239770
  36 H     1.0000    0     1.008    1.664204    5.816384   -2.335163
  37 H     1.0000    0     1.008   -1.355164    4.368310   -1.772437
  38 H     1.0000    0     1.008    3.909046    2.516221   -0.043921

--------------------------------
INTERNAL COORDINATES (ANGSTROEM)
--------------------------------
 C      0   0   0     0.000000000000     0.00000000     0.00000000
 C      1   0   0     1.503549666908     0.00000000     0.00000000
 C      2   1   0     1.349928398644   119.08552946     0.00000000
 C      3   2   1     1.513810457035   122.47621736   176.21513978
 C      4   3   2     1.541253711009   108.97634552   267.10134605
 C      5   4   3     1.513509568952   113.33922663    77.72148904
 N      6   5   4     1.365622577871   118.45363759   191.84674055
 C      7   6   5     1.360918549822   121.97849363   180.54882292
 O      8   7   6     1.260003194755   120.04804502   180.24269239
 C      8   7   6     1.393515681281   120.11666892     0.03472144
 C     10   8   7     1.392156014318   119.43233076     0.48446839
 C     11  10   8     1.406061041278   120.52822519     1.01698308
 C     12  11  10     1.534419374474   120.01060142   182.92518028
 C      2   1   3     1.519524956411   118.92677656   186.28459507
 N     13  12  11     1.485364530597   110.72340258   322.17372178
 C     15  13  12     1.471853749792   113.28143104   290.71787016
 C     16  15  13     1.530549760919   111.25161697   300.83107057
 C     17  16  15     1.525056713657   109.80583132    58.78645909
 C      4   3   2     1.543007548500   110.38043679    29.84420216
 H      1   2   3     1.110434026922   109.67986200   296.05392468
 H      1   2   3     1.110517721524   111.00296788   176.14143914
 H      1   2   3     1.110692306500   109.94435059    56.20354610
 H      3   2   1     1.087111000573   119.46084046     3.45567472
 H      4   3   2     1.112167260155   108.00826573   149.09546420
 H      5   4   3     1.112577515540   109.58472920   315.39466065
 H      5   4   3     1.110346393094   109.63256001   199.34752080
 H      7   6   5     1.045910982905   119.31582147     0.80673567
 H     10   8   7     1.083140051045   120.58848393   180.82066591
 H     11  10   8     1.082593116886   118.78980296   181.22485340
 H     14   2   1     1.112278864286   109.52419686   315.34999859
 H     14   2   1     1.111667452769   106.71196326    70.48412204
 H     15  13  12     1.047942452363   109.76427895   170.58497792
 H     16  15  13     1.111643553495   110.36641554    63.42901983
 H     16  15  13     1.111295767600   108.99913868   180.71972033
 H     17  16  15     1.111339421807   109.49096033   179.03941689
 H     17  16  15     1.112126291867   109.88678926   297.73908247
 H     18  17  16     1.111486833272   109.30480517   183.91089843
 H     18  17  16     1.109899645811   107.94905669    66.70256004
 H     19   4   3     1.115339087975   107.86763934    60.59657067

---------------------------
INTERNAL COORDINATES (A.U.)
---------------------------
 C      0   0   0     0.000000000000     0.00000000     0.00000000
 C      1   0   0     2.841297099205     0.00000000     0.00000000
 C      2   1   0     2.550994973840   119.08552946     0.00000000
 C      3   2   1     2.860687182463   122.47621736   176.21513978
 C      4   3   2     2.912547416696   108.97634552   267.10134605
 C      5   4   3     2.860118586388   113.33922663    77.72148904
 N      6   5   4     2.580652674475   118.45363759   191.84674055
 C      7   6   5     2.571763349736   121.97849363   180.54882292
 O      8   7   6     2.381060965954   120.04804502   180.24269239
 C      8   7   6     2.633363000946   120.11666892     0.03472144
 C     10   8   7     2.630793602752   119.43233076     0.48446839
 C     11  10   8     2.657070295592   120.52822519     1.01698308
 C     12  11  10     2.899632392338   120.01060142   182.92518028
 C      2   1   3     2.871486021275   118.92677656   186.28459507
 N     13  12  11     2.806932171868   110.72340258   322.17372178
 C     15  13  12     2.781400496291   113.28143104   290.71787016
 C     16  15  13     2.892319882475   111.25161697   300.83107057
 C     17  16  15     2.881939527509   109.80583132    58.78645909
 C      4   3   2     2.915861689239   110.38043679    29.84420216
 H      1   2   3     2.098416200671   109.67986200   296.05392468
 H      1   2   3     2.098574360547   111.00296788   176.14143914
 H      1   2   3     2.098904278338   109.94435059    56.20354610
 H      3   2   1     2.054342068255   119.46084046     3.45567472
 H      4   3   2     2.101691536807   108.00826573   149.09546420
 H      5   4   3     2.102466807130   109.58472920   315.39466065
 H      5   4   3     2.098250596735   109.63256001   199.34752080
 H      7   6   5     1.976485318151   119.31582147     0.80673567
 H     10   8   7     2.046838061156   120.58848393   180.82066591
 H     11  10   8     2.045804505384   118.78980296   181.22485340
 H     14   2   1     2.101902438049   109.52419686   315.34999859
 H     14   2   1     2.100747037726   106.71196326    70.48412204
 H     15  13  12     1.980324239076   109.76427895   170.58497792
 H     16  15  13     2.100701874644   110.36641554    63.42901983
 H     16  15  13     2.100044654550   108.99913868   180.71972033
 H     17  16  15     2.100127149045   109.49096033   179.03941689
 H     17  16  15     2.101614117962   109.88678926   297.73908247
 H     18  17  16     2.100405716344   109.30480517   183.91089843
 H     18  17  16     2.097406366719   107.94905669    66.70256004
 H     19   4   3     2.107685422730   107.86763934    60.59657067

---------------------
BASIS SET INFORMATION
---------------------
There are 4 groups of distinct atoms

 Group   1 Type C   : 10s4p1d contracted to 3s2p1d pattern {631/31/1}
 Group   2 Type N   : 10s4p1d contracted to 3s2p1d pattern {631/31/1}
 Group   3 Type O   : 10s4p1d contracted to 3s2p1d pattern {631/31/1}
 Group   4 Type H   : 4s contracted to 2s pattern {31}

Atom   0C    basis set group =>   1
Atom   1C    basis set group =>   1
Atom   2C    basis set group =>   1
Atom   3C    basis set group =>   1
Atom   4C    basis set group =>   1
Atom   5C    basis set group =>   1
Atom   6N    basis set group =>   2
Atom   7C    basis set group =>   1
Atom   8O    basis set group =>   3
Atom   9C    basis set group =>   1
Atom  10C    basis set group =>   1
Atom  11C    basis set group =>   1
Atom  12C    basis set group =>   1
Atom  13C    basis set group =>   1
Atom  14N    basis set group =>   2
Atom  15C    basis set group =>   1
Atom  16C    basis set group =>   1
Atom  17C    basis set group =>   1
Atom  18C    basis set group =>   1
Atom  19H    basis set group =>   4
Atom  20H    basis set group =>   4
Atom  21H    basis set group =>   4
Atom  22H    basis set group =>   4
Atom  23H    basis set group =>   4
Atom  24H    basis set group =>   4
Atom  25H    basis set group =>   4
Atom  26H    basis set group =>   4
Atom  27H    basis set group =>   4
Atom  28H    basis set group =>   4
Atom  29H    basis set group =>   4
Atom  30H    basis set group =>   4
Atom  31H    basis set group =>   4
Atom  32H    basis set group =>   4
Atom  33H    basis set group =>   4
Atom  34H    basis set group =>   4
Atom  35H    basis set group =>   4
Atom  36H    basis set group =>   4
Atom  37H    basis set group =>   4
Atom  38H    basis set group =>   4
---------------------------------
AUXILIARY/J BASIS SET INFORMATION
---------------------------------
There are 4 groups of distinct atoms

 Group   1 Type C   : 12s5p4d2f1g contracted to 6s4p3d1f1g pattern {711111/2111/211/2/1}
 Group   2 Type N   : 12s5p4d2f1g contracted to 6s4p3d1f1g pattern {711111/2111/211/2/1}
 Group   3 Type O   : 12s5p4d2f1g contracted to 6s4p3d1f1g pattern {711111/2111/211/2/1}
 Group   4 Type H   : 5s2p1d contracted to 3s1p1d pattern {311/2/1}

Atom   0C    basis set group =>   1
Atom   1C    basis set group =>   1
Atom   2C    basis set group =>   1
Atom   3C    basis set group =>   1
Atom   4C    basis set group =>   1
Atom   5C    basis set group =>   1
Atom   6N    basis set group =>   2
Atom   7C    basis set group =>   1
Atom   8O    basis set group =>   3
Atom   9C    basis set group =>   1
Atom  10C    basis set group =>   1
Atom  11C    basis set group =>   1
Atom  12C    basis set group =>   1
Atom  13C    basis set group =>   1
Atom  14N    basis set group =>   2
Atom  15C    basis set group =>   1
Atom  16C    basis set group =>   1
Atom  17C    basis set group =>   1
Atom  18C    basis set group =>   1
Atom  19H    basis set group =>   4
Atom  20H    basis set group =>   4
Atom  21H    basis set group =>   4
Atom  22H    basis set group =>   4
Atom  23H    basis set group =>   4
Atom  24H    basis set group =>   4
Atom  25H    basis set group =>   4
Atom  26H    basis set group =>   4
Atom  27H    basis set group =>   4
Atom  28H    basis set group =>   4
Atom  29H    basis set group =>   4
Atom  30H    basis set group =>   4
Atom  31H    basis set group =>   4
Atom  32H    basis set group =>   4
Atom  33H    basis set group =>   4
Atom  34H    basis set group =>   4
Atom  35H    basis set group =>   4
Atom  36H    basis set group =>   4
Atom  37H    basis set group =>   4
Atom  38H    basis set group =>   4

======================   ALLOCATED NODES   ======================
	gpua074: flags=0x11 slots=1 max_slots=0 slots_inuse=0 state=UP
=================================================================


           ************************************************************
           *        Program running with 16 parallel MPI-processes    *
           *              working on a common directory               *
           ************************************************************
------------------------------------------------------------------------------
                           ORCA GTO INTEGRAL CALCULATION
                           -- RI-GTO INTEGRALS CHOSEN --
------------------------------------------------------------------------------
------------------------------------------------------------------------------
                   ___                                                        
                  /   \      - P O W E R E D   B Y -                         
                 /     \                                                     
                 |  |  |   _    _      __       _____    __    __             
                 |  |  |  | |  | |    /  \     |  _  \  |  |  /  |          
                  \  \/   | |  | |   /    \    | | | |  |  | /  /          
                 / \  \   | |__| |  /  /\  \   | |_| |  |  |/  /          
                |  |  |   |  __  | /  /__\  \  |    /   |      \           
                |  |  |   | |  | | |   __   |  |    \   |  |\   \          
                \     /   | |  | | |  |  |  |  | |\  \  |  | \   \       
                 \___/    |_|  |_| |__|  |__|  |_| \__\ |__|  \__/        
                                                                              
                      - O R C A' S   B I G   F R I E N D -                    
                                      &                                       
                       - I N T E G R A L  F E E D E R -                       
                                                                              
 v1 FN, 2020, v2 2021                                                         
------------------------------------------------------------------------------


Reading SHARK input file compound_medoid_1/compound_medoid_1.SHARKINP.tmp ... ok
----------------------
SHARK INTEGRAL PACKAGE
----------------------

Number of atoms                             ...     39
Number of basis functions                   ...    306
Number of shells                            ...    154
Maximum angular momentum                    ...      2
Integral batch strategy                     ... SHARK/LIBINT Hybrid
RI-J (if used) integral strategy            ... SPLIT-RIJ (Revised 2003 algorithm where possible)
Printlevel                                  ...      1
Contraction scheme used                     ... SEGMENTED contraction
Coulomb Range Separation                    ... NOT USED
Exchange Range Separation                   ... NOT USED
Finite Nucleus Model                        ... NOT USED
Auxiliary Coulomb fitting basis             ... AVAILABLE
   # of basis functions in Aux-J            ...   1151
   # of shells in Aux-J                     ...    385
   Maximum angular momentum in Aux-J        ...      4
Auxiliary J/K fitting basis                 ... NOT available
Auxiliary Correlation fitting basis         ... NOT available
Auxiliary 'external' fitting basis          ... NOT available
Integral threshold                          ...     2.500000e-11
Primitive cut-off                           ...     2.500000e-12
Primitive pair pre-selection threshold      ...     2.500000e-12

Calculating pre-screening integrals         ... done (  0.1 sec) Dimension = 154
Organizing shell pair data                  ... done (  0.1 sec)
Shell pair information
Total number of shell pairs                 ...     11935
Shell pairs after pre-screening             ...     10184
Total number of primitive shell pairs       ...     67254
Primitive shell pairs kept                  ...     32860
          la=0 lb=0:   3877 shell pairs
          la=1 lb=0:   3329 shell pairs
          la=1 lb=1:    718 shell pairs
          la=2 lb=0:   1451 shell pairs
          la=2 lb=1:    660 shell pairs
          la=2 lb=2:    149 shell pairs

Calculating one electron integrals          ... done (  0.0 sec)
Calculating RI/J V-Matrix + Cholesky decomp.... done (  0.3 sec)
Calculating Nuclear repulsion               ... done (  0.0 sec) ENN=   1520.585343852293 Eh

SHARK setup successfully completed in   0.5 seconds

Maximum memory used throughout the entire GTOINT-calculation: 20.5 MB

======================   ALLOCATED NODES   ======================
	gpua074: flags=0x11 slots=1 max_slots=0 slots_inuse=0 state=UP
=================================================================


           ************************************************************
           *        Program running with 16 parallel MPI-processes    *
           *              working on a common directory               *
           ************************************************************
-------------------------------------------------------------------------------
                                 ORCA SCF
-------------------------------------------------------------------------------

------------
SCF SETTINGS
------------
Hamiltonian:
 Density Functional     Method          .... DFT(GTOs)
 Exchange Functional    Exchange        .... B88
   X-Alpha parameter    XAlpha          ....  0.666667
   Becke's b parameter  XBeta           ....  0.004200
 Correlation Functional Correlation     .... LYP
 LDA part of GGA corr.  LDAOpt          .... VWN-5
 Gradients option       PostSCFGGA      .... off
 Hybrid DFT is turned on
   Fraction HF Exchange ScalHFX         ....  0.200000
   Scaling of DF-GGA-X  ScalDFX         ....  0.720000
   Scaling of DF-GGA-C  ScalDFC         ....  0.810000
   Scaling of DF-LDA-C  ScalLDAC        ....  1.000000
   Perturbative correction              ....  0.000000
   Density functional embedding theory  .... OFF
   NL short-range parameter             ....  4.800000
 RI-approximation to the Coulomb term is turned on
   Number of AuxJ basis functions       .... 1151
   RIJ-COSX (HFX calculated with COS-X)).... on


General Settings:
 Integral files         IntName         .... compound_medoid_1/compound_medoid_1
 Hartree-Fock type      HFTyp           .... RHF
 Total Charge           Charge          ....    0
 Multiplicity           Mult            ....    1
 Number of Electrons    NEL             ....  138
 Basis Dimension        Dim             ....  306
 Nuclear Repulsion      ENuc            ....   1520.5853438523 Eh

Convergence Acceleration:
 DIIS                   CNVDIIS         .... on
   Start iteration      DIISMaxIt       ....    12
   Startup error        DIISStart       ....  0.200000
   # of expansion vecs  DIISMaxEq       ....     5
   Bias factor          DIISBfac        ....   1.050
   Max. coefficient     DIISMaxC        ....  10.000
 Trust-Rad. Augm. Hess. CNVTRAH         .... auto
   Auto Start mean grad. ratio tolernc. ....  1.125000
   Auto Start start iteration           ....    20
   Auto Start num. interpolation iter.  ....    10
   Max. Number of Micro iterations      ....    16
   Max. Number of Macro iterations      .... Maxiter - #DIIS iter
   Number of Davidson start vectors     ....     2
   Converg. threshold I  (grad. norm)   ....   1.000e-05
   Converg. threshold II (energy diff.) ....   1.000e-08
   Grad. Scal. Fac. for Micro threshold ....   0.100
   Minimum threshold for Micro iter.    ....   0.010
   NR start threshold (gradient norm)   ....   0.001
   Initial trust radius                 ....   0.400
   Minimum AH scaling param. (alpha)    ....   1.000
   Maximum AH scaling param. (alpha)    .... 1000.000
   Orbital update algorithm             .... Taylor
   White noise on init. David. guess    .... on
   Maximum white noise                  ....   0.010
   Quad. conv. algorithm                .... NR
 SOSCF                  CNVSOSCF        .... on
   Start iteration      SOSCFMaxIt      ....   150
   Startup grad/error   SOSCFStart      ....  0.003300
 Level Shifting         CNVShift        .... on
   Level shift para.    LevelShift      ....    0.2500
   Turn off err/grad.   ShiftErr        ....    0.0010
 Zerner damping         CNVZerner       .... off
 Static damping         CNVDamp         .... on
   Fraction old density DampFac         ....    0.7000
   Max. Damping (<1)    DampMax         ....    0.9800
   Min. Damping (>=0)   DampMin         ....    0.0000
   Turn off err/grad.   DampErr         ....    0.1000
 Fernandez-Rico         CNVRico         .... off

SCF Procedure:
 Maximum # iterations   MaxIter         ....   125
 SCF integral mode      SCFMode         .... Direct
   Integral package                     .... SHARK and LIBINT hybrid scheme
 Reset frequency        DirectResetFreq ....    20
 Integral Threshold     Thresh          ....  2.500e-11 Eh
 Primitive CutOff       TCut            ....  2.500e-12 Eh

Convergence Tolerance:
 Convergence Check Mode ConvCheckMode   .... Total+1el-Energy
 Convergence forced     ConvForced      .... 0
 Energy Change          TolE            ....  1.000e-08 Eh
 1-El. energy change                    ....  1.000e-05 Eh
 Orbital Gradient       TolG            ....  1.000e-05
 Orbital Rotation angle TolX            ....  1.000e-05
 DIIS Error             TolErr          ....  5.000e-07


Diagonalization of the overlap matrix:
Smallest eigenvalue                        ... 6.740e-04
Time for diagonalization                   ...    0.032 sec
Threshold for overlap eigenvalues          ... 1.000e-08
Number of eigenvalues below threshold      ... 0
Time for construction of square roots      ...    0.021 sec
Total time needed                          ...    0.054 sec

Time for model grid setup =    0.182 sec

------------------------------
INITIAL GUESS: MODEL POTENTIAL
------------------------------
Loading Hartree-Fock densities                     ... done
Calculating cut-offs                               ... done
Initializing the effective Hamiltonian             ... done
Setting up the integral package (SHARK)            ... done
Starting the Coulomb interaction                   ... done (   0.1 sec)
Reading the grid                                   ... done
Mapping shells                                     ... done
Starting the XC term evaluation                    ... done (   0.1 sec)
  promolecular density results
     # of electrons  =    137.992739606
     EX              =   -109.599332726
     EC              =     -4.653225766
     EX+EC           =   -114.252558492
Transforming the Hamiltonian                       ... done (   0.0 sec)
Diagonalizing the Hamiltonian                      ... done (   0.0 sec)
Back transforming the eigenvectors                 ... done (   0.0 sec)
Now organizing SCF variables                       ... done
                      ------------------
                      INITIAL GUESS DONE (   0.4 sec)
                      ------------------
-------------------
DFT GRID GENERATION
-------------------

General Integration Accuracy     IntAcc      ... 4.388
Radial Grid Type                 RadialGrid  ... OptM3 with GC (2021)
Angular Grid (max. ang.)         AngularGrid ... 4 (Lebedev-302)
Angular grid pruning method      GridPruning ... 4 (adaptive)
Weight generation scheme         WeightScheme... Becke
Basis function cutoff            BFCut       ... 1.0000e-11
Integration weight cutoff        WCut        ... 1.0000e-14
Angular grids for H and He will be reduced by one unit
Partially contracted basis set               ... off
Rotationally invariant grid construction     ... off

Total number of grid points                  ...   175859
Total number of batches                      ...     2766
Average number of points per batch           ...       63
Average number of grid points per atom       ...     4509
Time for grid setup =    0.885 sec

--------------------
COSX GRID GENERATION
--------------------

GRIDX 1
-------
General Integration Accuracy     IntAcc      ... 3.816
Radial Grid Type                 RadialGrid  ... OptM3 with GC (2021)
Angular Grid (max. ang.)         AngularGrid ... 1 (Lebedev-50)
Angular grid pruning method      GridPruning ... 4 (adaptive)
Weight generation scheme         WeightScheme... Becke
Basis function cutoff            BFCut       ... 1.0000e-11
Integration weight cutoff        WCut        ... 1.0000e-14
Angular grids for H and He will be reduced by one unit
Partially contracted basis set               ... on
Rotationally invariant grid construction     ... off

Total number of grid points                  ...    22365
Total number of batches                      ...      373
Average number of points per batch           ...       59
Average number of grid points per atom       ...      573
UseSFitting                                  ... on

GRIDX 2
-------
General Integration Accuracy     IntAcc      ... 4.020
Radial Grid Type                 RadialGrid  ... OptM3 with GC (2021)
Angular Grid (max. ang.)         AngularGrid ... 2 (Lebedev-110)
Angular grid pruning method      GridPruning ... 4 (adaptive)
Weight generation scheme         WeightScheme... Becke
Basis function cutoff            BFCut       ... 1.0000e-11
Integration weight cutoff        WCut        ... 1.0000e-14
Angular grids for H and He will be reduced by one unit
Partially contracted basis set               ... on
Rotationally invariant grid construction     ... off

Total number of grid points                  ...    47456
Total number of batches                      ...      762
Average number of points per batch           ...       62
Average number of grid points per atom       ...     1217
UseSFitting                                  ... on

GRIDX 3
-------
General Integration Accuracy     IntAcc      ... 4.338
Radial Grid Type                 RadialGrid  ... OptM3 with GC (2021)
Angular Grid (max. ang.)         AngularGrid ... 3 (Lebedev-194)
Angular grid pruning method      GridPruning ... 4 (adaptive)
Weight generation scheme         WeightScheme... Becke
Basis function cutoff            BFCut       ... 1.0000e-11
Integration weight cutoff        WCut        ... 1.0000e-14
Angular grids for H and He will be reduced by one unit
Partially contracted basis set               ... on
Rotationally invariant grid construction     ... off

Total number of grid points                  ...   103342
Total number of batches                      ...     1633
Average number of points per batch           ...       63
Average number of grid points per atom       ...     2650
UseSFitting                                  ... on

Time for X-Grid setup             =    0.796 sec

--------------
SCF ITERATIONS
--------------
ITER       Energy         Delta-E        Max-DP      RMS-DP      [F,P]     Damp
               ***  Starting incremental Fock matrix formation  ***
  0   -805.4062819123   0.000000000000 0.11330338  0.00211002  0.3023363 0.7000
  1   -805.6512297368  -0.244947824432 0.06569132  0.00147396  0.1126632 0.7000
                               ***Turning on DIIS***
  2   -805.7484641005  -0.097234363716 0.07071278  0.00229844  0.0452614 0.0000
  3   -805.8955649588  -0.147100858315 0.05898186  0.00110464  0.0638560 0.0000
  4   -805.9314758282  -0.035910869401 0.01408719  0.00032257  0.0189757 0.0000
  5   -805.9338399792  -0.002364150971 0.00638794  0.00012207  0.0104460 0.0000
                      *** Initiating the SOSCF procedure ***
                           *** Shutting down DIIS ***
                      *** Re-Reading the Fockian *** 
                      *** Removing any level shift *** 
ITER      Energy       Delta-E        Grad      Rot      Max-DP    RMS-DP
  6   -805.93409520  -0.0002552174  0.000480  0.000480  0.002464  0.000040
               *** Restarting incremental Fock matrix formation ***
  7   -805.93410164  -0.0000064405  0.000237  0.000935  0.002414  0.000031
  8   -805.93410154   0.0000000994  0.000509  0.001093  0.000790  0.000016
  9   -805.93410624  -0.0000047030  0.000135  0.000394  0.000491  0.000009
 10   -805.93410610   0.0000001450  0.000104  0.000155  0.000175  0.000004
 11   -805.93410660  -0.0000005030  0.000023  0.000150  0.000131  0.000002
 12   -805.93410659   0.0000000071  0.000037  0.000087  0.000067  0.000001
 13   -805.93410661  -0.0000000201  0.000005  0.000013  0.000033  0.000001
 14   -805.93410660   0.0000000089  0.000005  0.000009  0.000019  0.000000
                  ***Gradient check signals convergence***
              ***Rediagonalizing the Fockian in SOSCF/NRSCF***

               *****************************************************
               *                     SUCCESS                       *
               *           SCF CONVERGED AFTER  15 CYCLES          *
               *****************************************************

Old exchange energy                            =    -22.327581085 Eh
New exchange energy                            =    -22.327629964 Eh
Exchange energy change after final integration =     -0.000048879 Eh
Total energy after final integration           =   -805.934155481 Eh
Final COS-X integration done in                =     2.895 sec

----------------
TOTAL SCF ENERGY
----------------

Total Energy       :         -805.93415548 Eh          -21930.58330 eV

Components:
Nuclear Repulsion  :         1520.58534385 Eh           41377.23078 eV
Electronic Energy  :        -2326.51949933 Eh          -63307.81408 eV
One Electron Energy:        -4113.75742227 Eh         -111941.03043 eV
Two Electron Energy:         1787.23792294 Eh           48633.21635 eV
Max COSX asymmetry :            0.00000397 Eh               0.00011 eV

Virial components:
Potential Energy   :        -1606.86071885 Eh          -43724.90309 eV
Kinetic Energy     :          800.92656337 Eh           21794.31979 eV
Virial Ratio       :            2.00625225


DFT components:
N(Alpha)           :       69.000111131324 electrons
N(Beta)            :       69.000111131324 electrons
N(Total)           :      138.000222262648 electrons
E(X)               :      -88.597837903896 Eh       
E(C)               :       -5.473832376815 Eh       
E(XC)              :      -94.071670280710 Eh       
DFET-embed. en.    :        0.000000000000 Eh       

---------------
SCF CONVERGENCE
---------------

  Last Energy change         ...    2.6591e-10  Tolerance :   1.0000e-08
  Last MAX-Density change    ...    3.1086e-15  Tolerance :   1.0000e-07
  Last RMS-Density change    ...    4.0000e-17  Tolerance :   5.0000e-09
  Last Orbital Gradient      ...    9.0473e-07  Tolerance :   1.0000e-05
  Last Orbital Rotation      ...    2.9699e-06  Tolerance :   1.0000e-05

             **** THE GBW FILE WAS UPDATED (compound_medoid_1/compound_medoid_1.gbw) ****
             **** DENSITY compound_medoid_1/compound_medoid_1.scfp WAS UPDATED ****
             **** ENERGY FILE WAS UPDATED (compound_medoid_1/compound_medoid_1.en.tmp) ****
             **** THE GBW FILE WAS UPDATED (compound_medoid_1/compound_medoid_1.gbw) ****
             **** DENSITY compound_medoid_1/compound_medoid_1.scfp WAS UPDATED ****
----------------
ORBITAL ENERGIES
----------------

  NO   OCC          E(Eh)            E(eV) 
   0   2.0000     -19.061954      -518.7021 
   1   2.0000     -14.383242      -391.3879 
   2   2.0000     -14.315614      -389.5477 
   3   2.0000     -10.253023      -278.9989 
   4   2.0000     -10.245354      -278.7903 
   5   2.0000     -10.224771      -278.2302 
   6   2.0000     -10.202503      -277.6242 
   7   2.0000     -10.199964      -277.5551 
   8   2.0000     -10.194807      -277.4148 
   9   2.0000     -10.188182      -277.2345 
  10   2.0000     -10.187731      -277.2223 
  11   2.0000     -10.187105      -277.2052 
  12   2.0000     -10.185729      -277.1678 
  13   2.0000     -10.185648      -277.1656 
  14   2.0000     -10.178816      -276.9797 
  15   2.0000     -10.176836      -276.9258 
  16   2.0000     -10.175378      -276.8861 
  17   2.0000     -10.169796      -276.7342 
  18   2.0000     -10.168395      -276.6961 
  19   2.0000      -1.005987       -27.3743 
  20   2.0000      -0.934147       -25.4194 
  21   2.0000      -0.914447       -24.8834 
  22   2.0000      -0.845988       -23.0205 
  23   2.0000      -0.808028       -21.9876 
  24   2.0000      -0.797520       -21.7016 
  25   2.0000      -0.774452       -21.0739 
  26   2.0000      -0.753351       -20.4997 
  27   2.0000      -0.737024       -20.0554 
  28   2.0000      -0.686308       -18.6754 
  29   2.0000      -0.682757       -18.5788 
  30   2.0000      -0.641045       -17.4437 
  31   2.0000      -0.638669       -17.3791 
  32   2.0000      -0.620556       -16.8862 
  33   2.0000      -0.603806       -16.4304 
  34   2.0000      -0.587986       -15.9999 
  35   2.0000      -0.555864       -15.1258 
  36   2.0000      -0.533140       -14.5075 
  37   2.0000      -0.502445       -13.6722 
  38   2.0000      -0.498341       -13.5605 
  39   2.0000      -0.480922       -13.0866 
  40   2.0000      -0.473595       -12.8872 
  41   2.0000      -0.467071       -12.7097 
  42   2.0000      -0.454300       -12.3621 
  43   2.0000      -0.447271       -12.1709 
  44   2.0000      -0.438246       -11.9253 
  45   2.0000      -0.429078       -11.6758 
  46   2.0000      -0.424246       -11.5443 
  47   2.0000      -0.418415       -11.3856 
  48   2.0000      -0.412260       -11.2182 
  49   2.0000      -0.403247       -10.9729 
  50   2.0000      -0.399952       -10.8833 
  51   2.0000      -0.395993       -10.7755 
  52   2.0000      -0.384291       -10.4571 
  53   2.0000      -0.369250       -10.0478 
  54   2.0000      -0.365684        -9.9508 
  55   2.0000      -0.357026        -9.7152 
  56   2.0000      -0.355866        -9.6836 
  57   2.0000      -0.351020        -9.5517 
  58   2.0000      -0.346704        -9.4343 
  59   2.0000      -0.341563        -9.2944 
  60   2.0000      -0.323862        -8.8127 
  61   2.0000      -0.319036        -8.6814 
  62   2.0000      -0.299939        -8.1617 
  63   2.0000      -0.298023        -8.1096 
  64   2.0000      -0.285761        -7.7759 
  65   2.0000      -0.231910        -6.3106 
  66   2.0000      -0.217441        -5.9169 
  67   2.0000      -0.211738        -5.7617 
  68   2.0000      -0.189315        -5.1515 
  69   0.0000      -0.032508        -0.8846 
  70   0.0000       0.013808         0.3757 
  71   0.0000       0.026488         0.7208 
  72   0.0000       0.065987         1.7956 
  73   0.0000       0.080042         2.1780 
  74   0.0000       0.088739         2.4147 
  75   0.0000       0.101079         2.7505 
  76   0.0000       0.109845         2.9890 
  77   0.0000       0.122543         3.3346 
  78   0.0000       0.129454         3.5226 
  79   0.0000       0.135065         3.6753 
  80   0.0000       0.136439         3.7127 
  81   0.0000       0.138808         3.7771 
  82   0.0000       0.145163         3.9501 
  83   0.0000       0.155147         4.2218 
  84   0.0000       0.158792         4.3209 
  85   0.0000       0.164008         4.4629 
  86   0.0000       0.168127         4.5750 
  87   0.0000       0.171454         4.6655 
  88   0.0000       0.176700         4.8082 
  89   0.0000       0.185787         5.0555 
  90   0.0000       0.191889         5.2216 
  91   0.0000       0.199045         5.4163 
  92   0.0000       0.203573         5.5395 
  93   0.0000       0.207411         5.6439 
  94   0.0000       0.215883         5.8745 
  95   0.0000       0.218289         5.9399 
  96   0.0000       0.229467         6.2441 
  97   0.0000       0.238840         6.4992 
  98   0.0000       0.243967         6.6387 
  99   0.0000       0.252578         6.8730 
 100   0.0000       0.263738         7.1767 
 101   0.0000       0.268976         7.3192 
 102   0.0000       0.273260         7.4358 
 103   0.0000       0.286565         7.7978 
 104   0.0000       0.293714         7.9924 
 105   0.0000       0.293832         7.9956 
 106   0.0000       0.315049         8.5729 
 107   0.0000       0.328543         8.9401 
 108   0.0000       0.343231         9.3398 
 109   0.0000       0.357233         9.7208 
 110   0.0000       0.374319        10.1857 
 111   0.0000       0.396620        10.7926 
 112   0.0000       0.417370        11.3572 
 113   0.0000       0.463575        12.6145 
 114   0.0000       0.498566        13.5667 
 115   0.0000       0.503886        13.7114 
 116   0.0000       0.506499        13.7825 
 117   0.0000       0.515587        14.0298 
 118   0.0000       0.532443        14.4885 
 119   0.0000       0.538186        14.6448 
 120   0.0000       0.546065        14.8592 
 121   0.0000       0.552218        15.0266 
 122   0.0000       0.556178        15.1344 
 123   0.0000       0.568477        15.4690 
 124   0.0000       0.570779        15.5317 
 125   0.0000       0.574697        15.6383 
 126   0.0000       0.583582        15.8801 
 127   0.0000       0.588401        16.0112 
 128   0.0000       0.603390        16.4191 
 129   0.0000       0.616397        16.7730 
 130   0.0000       0.621197        16.9036 
 131   0.0000       0.632244        17.2042 
 132   0.0000       0.638454        17.3732 
 133   0.0000       0.643015        17.4973 
 134   0.0000       0.644878        17.5480 
 135   0.0000       0.655528        17.8378 
 136   0.0000       0.661274        17.9942 
 137   0.0000       0.677554        18.4372 
 138   0.0000       0.680268        18.5110 
 139   0.0000       0.687416        18.7055 
 140   0.0000       0.697671        18.9846 
 141   0.0000       0.719026        19.5657 
 142   0.0000       0.719752        19.5854 
 143   0.0000       0.725718        19.7478 
 144   0.0000       0.740405        20.1475 
 145   0.0000       0.758539        20.6409 
 146   0.0000       0.771685        20.9986 
 147   0.0000       0.776617        21.1328 
 148   0.0000       0.779726        21.2174 
 149   0.0000       0.792439        21.5634 
 150   0.0000       0.801349        21.8058 
 151   0.0000       0.814515        22.1641 
 152   0.0000       0.819551        22.3011 
 153   0.0000       0.824292        22.4301 
 154   0.0000       0.830155        22.5897 
 155   0.0000       0.841025        22.8855 
 156   0.0000       0.842584        22.9279 
 157   0.0000       0.851792        23.1785 
 158   0.0000       0.856126        23.2964 
 159   0.0000       0.862301        23.4644 
 160   0.0000       0.872806        23.7503 
 161   0.0000       0.876815        23.8593 
 162   0.0000       0.884384        24.0653 
 163   0.0000       0.889452        24.2032 
 164   0.0000       0.893248        24.3065 
 165   0.0000       0.896213        24.3872 
 166   0.0000       0.901549        24.5324 
 167   0.0000       0.909924        24.7603 
 168   0.0000       0.915050        24.8998 
 169   0.0000       0.919591        25.0233 
 170   0.0000       0.936148        25.4739 
 171   0.0000       0.939848        25.5746 
 172   0.0000       0.944822        25.7099 
 173   0.0000       0.957715        26.0608 
 174   0.0000       0.963855        26.2278 
 175   0.0000       0.978605        26.6292 
 176   0.0000       0.985738        26.8233 
 177   0.0000       1.005135        27.3511 
 178   0.0000       1.022324        27.8188 
 179   0.0000       1.032477        28.0951 
 180   0.0000       1.036203        28.1965 
 181   0.0000       1.057830        28.7850 
 182   0.0000       1.066097        29.0100 
 183   0.0000       1.096455        29.8361 
 184   0.0000       1.109048        30.1787 
 185   0.0000       1.136283        30.9198 
 186   0.0000       1.145615        31.1738 
 187   0.0000       1.165954        31.7272 
 188   0.0000       1.170818        31.8596 
 189   0.0000       1.194605        32.5069 
 190   0.0000       1.211985        32.9798 
 191   0.0000       1.221798        33.2468 
 192   0.0000       1.234479        33.5919 
 193   0.0000       1.249672        34.0053 
 194   0.0000       1.265811        34.4445 
 195   0.0000       1.290174        35.1074 
 196   0.0000       1.309815        35.6419 
 197   0.0000       1.350907        36.7601 
 198   0.0000       1.372857        37.3573 
 199   0.0000       1.382555        37.6212 
 200   0.0000       1.397730        38.0342 
 201   0.0000       1.415498        38.5177 
 202   0.0000       1.426807        38.8254 
 203   0.0000       1.435877        39.0722 
 204   0.0000       1.463104        39.8131 
 205   0.0000       1.469958        39.9996 
 206   0.0000       1.473663        40.1004 
 207   0.0000       1.480043        40.2740 
 208   0.0000       1.493743        40.6468 
 209   0.0000       1.524473        41.4830 
 210   0.0000       1.561801        42.4988 
 211   0.0000       1.580896        43.0184 
 212   0.0000       1.593473        43.3606 
 213   0.0000       1.633523        44.4504 
 214   0.0000       1.657401        45.1002 
 215   0.0000       1.685074        45.8532 
 216   0.0000       1.709687        46.5230 
 217   0.0000       1.720639        46.8210 
 218   0.0000       1.737530        47.2806 
 219   0.0000       1.749724        47.6124 
 220   0.0000       1.760087        47.8944 
 221   0.0000       1.781097        48.4661 
 222   0.0000       1.791825        48.7580 
 223   0.0000       1.808406        49.2092 
 224   0.0000       1.818456        49.4827 
 225   0.0000       1.821270        49.5593 
 226   0.0000       1.831857        49.8474 
 227   0.0000       1.849098        50.3165 
 228   0.0000       1.862208        50.6732 
 229   0.0000       1.872356        50.9494 
 230   0.0000       1.877004        51.0759 
 231   0.0000       1.887216        51.3538 
 232   0.0000       1.894549        51.5533 
 233   0.0000       1.900533        51.7161 
 234   0.0000       1.920371        52.2559 
 235   0.0000       1.925994        52.4090 
 236   0.0000       1.935744        52.6743 
 237   0.0000       1.946650        52.9710 
 238   0.0000       1.954461        53.1836 
 239   0.0000       1.958197        53.2853 
 240   0.0000       1.971584        53.6495 
 241   0.0000       1.986605        54.0583 
 242   0.0000       1.997578        54.3569 
 243   0.0000       2.005551        54.5738 
 244   0.0000       2.014963        54.8299 
 245   0.0000       2.041769        55.5593 
 246   0.0000       2.050388        55.7939 
 247   0.0000       2.063336        56.1462 
 248   0.0000       2.066342        56.2280 
 249   0.0000       2.091494        56.9125 
 250   0.0000       2.103283        57.2332 
 251   0.0000       2.113216        57.5035 
 252   0.0000       2.123357        57.7795 
 253   0.0000       2.140221        58.2384 
 254   0.0000       2.152283        58.5666 
 255   0.0000       2.170304        59.0570 
 256   0.0000       2.186146        59.4881 
 257   0.0000       2.204229        59.9801 
 258   0.0000       2.214670        60.2642 
 259   0.0000       2.221490        60.4498 
 260   0.0000       2.230489        60.6947 
 261   0.0000       2.255185        61.3667 
 262   0.0000       2.257480        61.4292 
 263   0.0000       2.282769        62.1173 
 264   0.0000       2.298212        62.5375 
 265   0.0000       2.313617        62.9567 
 266   0.0000       2.326809        63.3157 
 267   0.0000       2.343780        63.7775 
 268   0.0000       2.347556        63.8802 
 269   0.0000       2.369055        64.4653 
 270   0.0000       2.375147        64.6310 
 271   0.0000       2.378980        64.7353 
 272   0.0000       2.399035        65.2811 
 273   0.0000       2.417176        65.7747 
 274   0.0000       2.424327        65.9693 
 275   0.0000       2.453061        66.7512 
 276   0.0000       2.469280        67.1925 
 277   0.0000       2.471651        67.2570 
 278   0.0000       2.508110        68.2491 
 279   0.0000       2.518947        68.5440 
 280   0.0000       2.548367        69.3446 
 281   0.0000       2.561759        69.7090 
 282   0.0000       2.590863        70.5010 
 283   0.0000       2.621499        71.3346 
 284   0.0000       2.631059        71.5947 
 285   0.0000       2.647358        72.0383 
 286   0.0000       2.656718        72.2930 
 287   0.0000       2.678579        72.8878 
 288   0.0000       2.695979        73.3613 
 289   0.0000       2.704795        73.6012 
 290   0.0000       2.716412        73.9173 
 291   0.0000       2.730399        74.2979 
 292   0.0000       2.768177        75.3259 
 293   0.0000       2.792020        75.9747 
 294   0.0000       2.809541        76.4515 
 295   0.0000       2.831491        77.0488 
 296   0.0000       2.866021        77.9884 
 297   0.0000       2.880220        78.3748 
 298   0.0000       2.943938        80.1086 
 299   0.0000       2.965369        80.6918 
 300   0.0000       2.993586        81.4596 
 301   0.0000       3.008311        81.8603 
 302   0.0000       3.030256        82.4575 
 303   0.0000       3.076183        83.7072 
 304   0.0000       3.245078        88.3031 
 305   0.0000       3.445424        93.7548 

                    ********************************
                    * MULLIKEN POPULATION ANALYSIS *
                    ********************************

-----------------------
MULLIKEN ATOMIC CHARGES
-----------------------
   0 C :   -0.515797
   1 C :    0.172401
   2 C :   -0.170315
   3 C :   -0.119838
   4 C :   -0.356222
   5 C :    0.314238
   6 N :   -0.635013
   7 C :    0.541145
   8 O :   -0.542385
   9 C :   -0.208638
  10 C :   -0.126179
  11 C :    0.037640
  12 C :    0.132134
  13 C :   -0.337392
  14 N :   -0.555643
  15 C :   -0.147163
  16 C :   -0.257021
  17 C :   -0.265252
  18 C :   -0.107096
  19 H :    0.164085
  20 H :    0.148704
  21 H :    0.161459
  22 H :    0.113379
  23 H :    0.120231
  24 H :    0.151267
  25 H :    0.160451
  26 H :    0.340462
  27 H :    0.149506
  28 H :    0.158341
  29 H :    0.152400
  30 H :    0.136247
  31 H :    0.283775
  32 H :    0.148772
  33 H :    0.136011
  34 H :    0.127130
  35 H :    0.118814
  36 H :    0.128300
  37 H :    0.132930
  38 H :    0.114130
Sum of atomic charges:   -0.0000000

--------------------------------
MULLIKEN REDUCED ORBITAL CHARGES
--------------------------------
  0 C s       :     3.317714  s :     3.317714
      pz      :     1.083966  p :     3.163327
      px      :     1.058637
      py      :     1.020725
      dz2     :     0.008055  d :     0.034756
      dxz     :     0.003691
      dyz     :     0.007463
      dx2y2   :     0.008731
      dxy     :     0.006817
  1 C s       :     3.132376  s :     3.132376
      pz      :     0.866137  p :     2.654675
      px      :     0.925476
      py      :     0.863062
      dz2     :     0.009996  d :     0.040548
      dxz     :     0.008192
[...]
      dyz     :     0.006748
      dx2y2   :     0.004840
      dxy     :     0.005380
 12 C s       :     3.151195  s :     3.151195
      pz      :     0.818494  p :     2.663709
      px      :     0.956860
      py      :     0.888355
      dz2     :     0.014051  d :     0.062638
      dxz     :     0.012015
      dyz     :     0.015104
      dx2y2   :     0.009186
      dxy     :     0.012283
 13 C s       :     3.265845  s :     3.265845
      pz      :     1.017800  p :     3.034170
      px      :     1.004904
      py      :     1.011466
      dz2     :     0.004690  d :     0.040244
      dxz     :     0.010900
      dyz     :     0.010029
      dx2y2   :     0.005177
      dxy     :     0.009449
 14 N s       :     3.636493  s :     3.636493
      pz      :     1.325068  p :     3.884724
      px      :     1.286588
      py      :     1.273068
      dz2     :     0.007397  d :     0.036303
      dxz     :     0.006796
      dyz     :     0.006208
      dx2y2   :     0.010890
      dxy     :     0.005011
 15 C s       :     3.211372  s :     3.211372
      pz      :     1.020032  p :     2.882792
      px      :     1.008856
      py      :     0.853904
      dz2     :     0.010939  d :     0.054487
      dxz     :     0.004820
      dyz     :     0.013046
      dx2y2   :     0.015036
      dxy     :     0.010646
 16 C s       :     3.245716  s :     3.245716
      pz      :     0.955411  p :     2.975495
      px      :     1.024161
      py      :     0.995923
      dz2     :     0.009414  d :     0.039565
      dxz     :     0.006980
      dyz     :     0.007572
      dx2y2   :     0.007123
      dxy     :     0.008477
 17 C s       :     3.245944  s :     3.245944
      pz      :     0.980159  p :     2.983905
      px      :     1.030338
      py      :     0.973408
      dz2     :     0.006500  d :     0.040099
      dxz     :     0.008450
      dyz     :     0.009715
      dx2y2   :     0.008689
      dxy     :     0.006745
 18 C s       :     3.216093  s :     3.216093
      pz      :     0.936465  p :     2.847879
      px      :     0.984997
      py      :     0.926417
      dz2     :     0.008169  d :     0.044171
      dxz     :     0.006745
      dyz     :     0.011258
      dx2y2   :     0.010652
      dxy     :     0.007347
 19 H s       :     0.841264  s :     0.841264
 20 H s       :     0.848247  s :     0.848247
 21 H s       :     0.846466  s :     0.846466
 22 H s       :     0.885316  s :     0.885316
 23 H s       :     0.875651  s :     0.875651
 24 H s       :     0.845743  s :     0.845743
 25 H s       :     0.836899  s :     0.836899
 26 H s       :     0.670638  s :     0.670638
 27 H s       :     0.857149  s :     0.857149
 28 H s       :     0.841552  s :     0.841552
 29 H s       :     0.844472  s :     0.844472
 30 H s       :     0.867993  s :     0.867993
 31 H s       :     0.712503  s :     0.712503
 32 H s       :     0.852222  s :     0.852222
 33 H s       :     0.861851  s :     0.861851
 34 H s       :     0.867519  s :     0.867519
 35 H s       :     0.878162  s :     0.878162
 36 H s       :     0.869402  s :     0.869402
 37 H s       :     0.864600  s :     0.864600
 38 H s       :     0.884763  s :     0.884763


                     *******************************
                     * LOEWDIN POPULATION ANALYSIS *
                     *******************************

----------------------
LOEWDIN ATOMIC CHARGES
----------------------
   0 C :   -0.355385
   1 C :   -0.025138
   2 C :   -0.159400
   3 C :   -0.115214
   4 C :   -0.227485
   5 C :    0.042640
   6 N :   -0.132904
   7 C :    0.091905
   8 O :   -0.296670
   9 C :   -0.179002
  10 C :   -0.090336
  11 C :   -0.079198
  12 C :    0.020285
  13 C :   -0.215090
  14 N :   -0.296014
  15 C :   -0.172514
  16 C :   -0.245014
  17 C :   -0.232731
  18 C :   -0.118485
  19 H :    0.133858
  20 H :    0.130447
  21 H :    0.130972
  22 H :    0.122912
  23 H :    0.125006
  24 H :    0.134334
  25 H :    0.134710
  26 H :    0.260692
  27 H :    0.144179
  28 H :    0.147148
  29 H :    0.134913
  30 H :    0.122447
  31 H :    0.221863
  32 H :    0.123506
  33 H :    0.122599
  34 H :    0.123132
  35 H :    0.112842
  36 H :    0.120363
  37 H :    0.121086
  38 H :    0.118742

-------------------------------
LOEWDIN REDUCED ORBITAL CHARGES
-------------------------------
  0 C s       :     2.969552  s :     2.969552
      pz      :     1.128010  p :     3.317434
      px      :     1.112022
      py      :     1.077403
      dz2     :     0.009184  d :     0.068398
      dxz     :     0.019153
      dyz     :     0.011387
      dx2y2   :     0.010518
      dxy     :     0.018156
  1 C s       :     2.886105  s :     2.886105
      pz      :     1.067103  p :     3.038334
      px      :     0.965695
      py      :     1.005536
      dz2     :     0.027568  d :     0.100699
      dxz     :     0.021170
      dyz     :     0.029207
      dx2y2   :     0.009975
      dxy     :     0.012780
  2 C s       :     2.928830  s :     2.928830
      pz      :     1.083978  p :     3.148152
      px      :     1.030485
      py      :     1.033688
      dz2     :     0.021692  d :     0.082418
      dxz     :     0.015032
      dyz     :     0.027156
      dx2y2   :     0.008231
      dxy     :     0.010308
  3 C s       :     2.892699  s :     2.892699
      pz      :     1.050329  p :     3.121102
      px      :     1.023934
      py      :     1.046838
      dz2     :     0.016253  d :     0.101413
      dxz     :     0.019883
      dyz     :     0.023676
      dx2y2   :     0.020592
      dxy     :     0.021009
  4 C s       :     2.932542  s :     2.932542
      pz      :     1.063576  p :     3.210822
      px      :     1.043735
      py      :     1.103510
      dz2     :     0.008488  d :     0.084121
      dxz     :     0.020833
      dyz     :     0.024745
      dx2y2   :     0.016504
      dxy     :     0.013551
  5 C s       :     2.859851  s :     2.859851
      pz      :     1.071283  p :     2.957298
      px      :     0.945225
      py      :     0.940790
      dz2     :     0.031816  d :     0.140211
      dxz     :     0.039208
      dyz     :     0.022997
      dx2y2   :     0.023310
      dxy     :     0.022880
  6 N s       :     3.129404  s :     3.129404
      pz      :     1.204890  p :     3.921991
      px      :     1.242980
      py      :     1.474121
      dz2     :     0.024711  d :     0.081509
      dxz     :     0.021155
      dyz     :     0.006378
      dx2y2   :     0.014597
      dxy     :     0.014670
  7 C s       :     2.837582  s :     2.837582
      pz      :     1.007051  p :     2.811050
      px      :     0.935122
      py      :     0.868878
      dz2     :     0.050904  d :     0.259463
      dxz     :     0.086473
      dyz     :     0.031737
      dx2y2   :     0.045545
      dxy     :     0.044804
  8 O s       :     3.559546  s :     3.559546
      pz      :     1.728631  p :     4.683130
      px      :     1.484236
      py      :     1.470262
      dz2     :     0.006769  d :     0.053994
      dxz     :     0.013933
      dyz     :     0.004681
      dx2y2   :     0.013940
      dxy     :     0.014671
  9 C s       :     2.932495  s :     2.932495
      pz      :     1.049161  p :     3.167141
      px      :     1.072884
      py      :     1.045097
      dz2     :     0.022307  d :     0.079366
      dxz     :     0.027277
      dyz     :     0.009697
      dx2y2   :     0.009549
      dxy     :     0.010536
 10 C s       :     2.921394  s :     2.921394
      pz      :     1.087942  p :     3.080621
      px      :     1.046153
      py      :     0.946526
      dz2     :     0.023814  d :     0.088320
      dxz     :     0.024889
      dyz     :     0.008471
      dx2y2   :     0.015787
      dxy     :     0.015359
 11 C s       :     2.873080  s :     2.873080
      pz      :     1.042312  p :     3.110213
      px      :     1.019776
      py      :     1.048125
      dz2     :     0.029063  d :     0.095905
      dxz     :     0.029366
      dyz     :     0.015596
      dx2y2   :     0.010269
      dxy     :     0.011611
 12 C s       :     2.855503  s :     2.855503
      pz      :     0.964649  p :     2.980458
      px      :     1.019622
      py      :     0.996187
      dz2     :     0.032490  d :     0.143754
      dxz     :     0.026740
      dyz     :     0.036662
      dx2y2   :     0.018628
      dxy     :     0.029234
 13 C s       :     2.937918  s :     2.937918
      pz      :     1.065641  p :     3.193574
      px      :     1.064176
      py      :     1.063757
      dz2     :     0.010115  d :     0.083597
      dxz     :     0.022257
      dyz     :     0.020946
      dx2y2   :     0.009664
      dxy     :     0.020615
 14 N s       :     3.218550  s :     3.218550
      pz      :     1.357285  p :     4.000084
      px      :     1.329536
      py      :     1.313263
      dz2     :     0.015474  d :     0.077380
      dxz     :     0.013881
      dyz     :     0.015003
      dx2y2   :     0.021281
      dxy     :     0.011742
 15 C s       :     2.926076  s :     2.926076
      pz      :     1.085987  p :     3.131575
      px      :     1.074937
      py      :     0.970652
      dz2     :     0.021583  d :     0.114862
      dxz     :     0.009837
      dyz     :     0.029188
      dx2y2   :     0.030732
      dxy     :     0.023523
 16 C s       :     2.942868  s :     2.942868
      pz      :     1.053586  p :     3.218389
      px      :     1.095381
      py      :     1.069422
      dz2     :     0.020415  d :     0.083757
      dxz     :     0.014634
      dyz     :     0.018290
      dx2y2   :     0.013670
      dxy     :     0.016748
 17 C s       :     2.934063  s :     2.934063
      pz      :     1.063158  p :     3.214491
      px      :     1.099408
      py      :     1.051924
      dz2     :     0.014876  d :     0.084177
      dxz     :     0.016206
      dyz     :     0.021282
      dx2y2   :     0.017282
      dxy     :     0.014531
 18 C s       :     2.903051  s :     2.903051
      pz      :     1.031963  p :     3.116910
      px      :     1.063143
      py      :     1.021804
      dz2     :     0.019163  d :     0.098524
      dxz     :     0.014167
      dyz     :     0.026251
      dx2y2   :     0.022214
      dxy     :     0.016729
 19 H s       :     0.866142  s :     0.866142
 20 H s       :     0.869553  s :     0.869553
 21 H s       :     0.869028  s :     0.869028
 22 H s       :     0.877088  s :     0.877088
 23 H s       :     0.874994  s :     0.874994
 24 H s       :     0.865666  s :     0.865666
 25 H s       :     0.865290  s :     0.865290
 26 H s       :     0.739308  s :     0.739308
 27 H s       :     0.855821  s :     0.855821
 28 H s       :     0.852852  s :     0.852852
 29 H s       :     0.865087  s :     0.865087
 30 H s       :     0.877553  s :     0.877553
 31 H s       :     0.778137  s :     0.778137
 32 H s       :     0.876494  s :     0.876494
 33 H s       :     0.877401  s :     0.877401
 34 H s       :     0.876868  s :     0.876868
 35 H s       :     0.887158  s :     0.887158
 36 H s       :     0.879637  s :     0.879637
 37 H s       :     0.878914  s :     0.878914
 38 H s       :     0.881258  s :     0.881258


                      *****************************
                      * MAYER POPULATION ANALYSIS *
                      *****************************

  NA   - Mulliken gross atomic population
  ZA   - Total nuclear charge
  QA   - Mulliken gross atomic charge
  VA   - Mayer's total valence
  BVA  - Mayer's bonded valence
  FA   - Mayer's free valence

  ATOM       NA         ZA         QA         VA         BVA        FA
  0 C      6.5152     6.0000    -0.5152     3.8508     3.8508     0.0000
  1 C      5.8062     6.0000     0.1938     3.9263     3.9263    -0.0000
  2 C      6.1823     6.0000    -0.1823     3.9381     3.9381     0.0000
  3 C      6.1246     6.0000    -0.1246     3.8940     3.8940     0.0000
  4 C      6.3566     6.0000    -0.3566     3.8375     3.8375     0.0000
  5 C      5.6756     6.0000     0.3244     3.7540     3.7540    -0.0000
  6 N      7.6590     7.0000    -0.6590     3.0099     3.0099     0.0000
  7 C      5.4689     6.0000     0.5311     4.0041     4.0041     0.0000
  8 O      8.4931     8.0000    -0.4931     2.0666     2.0666    -0.0000
  9 C      6.2315     6.0000    -0.2315     3.8456     3.8456    -0.0000
 10 C      6.1134     6.0000    -0.1134     3.8416     3.8416     0.0000
 11 C      5.9583     6.0000     0.0417     3.9556     3.9556     0.0000
 12 C      5.8775     6.0000     0.1225     3.9179     3.9179    -0.0000
 13 C      6.3403     6.0000    -0.3403     3.8459     3.8459     0.0000
 14 N      7.5575     7.0000    -0.5575     2.8646     2.8646     0.0000
 15 C      6.1487     6.0000    -0.1487     3.8763     3.8763    -0.0000
 16 C      6.2608     6.0000    -0.2608     3.8482     3.8482    -0.0000
 17 C      6.2699     6.0000    -0.2699     3.8677     3.8677    -0.0000
 18 C      6.1081     6.0000    -0.1081     3.8686     3.8686    -0.0000
 19 H      0.8413     1.0000     0.1587     0.9287     0.9287     0.0000
 20 H      0.8482     1.0000     0.1518     0.9296     0.9296     0.0000
 21 H      0.8465     1.0000     0.1535     0.9370     0.9370    -0.0000
 22 H      0.8853     1.0000     0.1147     0.9425     0.9425     0.0000
 23 H      0.8757     1.0000     0.1243     0.9333     0.9333     0.0000
 24 H      0.8457     1.0000     0.1543     0.9319     0.9319     0.0000
 25 H      0.8369     1.0000     0.1631     0.9252     0.9252     0.0000
 26 H      0.6706     1.0000     0.3294     0.8756     0.8756    -0.0000
 27 H      0.8571     1.0000     0.1429     0.9429     0.9429     0.0000
 28 H      0.8416     1.0000     0.1584     0.9452     0.9452     0.0000
 29 H      0.8445     1.0000     0.1555     0.9340     0.9340     0.0000
 30 H      0.8680     1.0000     0.1320     0.9354     0.9354     0.0000
 31 H      0.7125     1.0000     0.2875     0.8739     0.8739    -0.0000
 32 H      0.8522     1.0000     0.1478     0.9372     0.9372    -0.0000
 33 H      0.8619     1.0000     0.1381     0.9336     0.9336    -0.0000
 34 H      0.8675     1.0000     0.1325     0.9347     0.9347    -0.0000
 35 H      0.8782     1.0000     0.1218     0.9382     0.9382    -0.0000
 36 H      0.8694     1.0000     0.1306     0.9340     0.9340     0.0000
 37 H      0.8646     1.0000     0.1354     0.9392     0.9392    -0.0000
 38 H      0.8848     1.0000     0.1152     0.9400     0.9400    -0.0000

  Mayer bond orders larger than 0.100000
B(  0-C ,  1-C ) :   0.9965 B(  0-C , 19-H ) :   0.9343 B(  0-C , 20-H ) :   0.9370 
B(  0-C , 21-H ) :   0.9474 B(  1-C ,  2-C ) :   1.9178 B(  1-C , 13-C ) :   0.9931 
B(  2-C ,  3-C ) :   0.9933 B(  2-C , 22-H ) :   0.9184 B(  3-C ,  4-C ) :   0.9765 
B(  3-C , 18-C ) :   0.9774 B(  3-C , 23-H ) :   0.9186 B(  4-C ,  5-C ) :   0.9898 
B(  4-C , 24-H ) :   0.9229 B(  4-C , 25-H ) :   0.9111 B(  5-C ,  6-N ) :   1.0330 
B(  5-C , 11-C ) :   1.5788 B(  6-N ,  7-C ) :   0.9638 B(  6-N , 26-H ) :   0.8218 
B(  7-C ,  8-O ) :   1.8266 B(  7-C ,  9-C ) :   1.1402 B(  9-C , 10-C ) :   1.5894 
B(  9-C , 27-H ) :   0.9279 B( 10-C , 11-C ) :   1.2314 B( 10-C , 28-H ) :   0.9072 
B( 11-C , 12-C ) :   0.9514 B( 12-C , 13-C ) :   0.9743 B( 12-C , 14-N ) :   0.9608 
B( 12-C , 18-C ) :   0.9653 B( 13-C , 29-H ) :   0.9202 B( 13-C , 30-H ) :   0.9121 
B( 14-N , 15-C ) :   1.0068 B( 14-N , 31-H ) :   0.8400 B( 15-C , 16-C ) :   0.9896 
B( 15-C , 32-H ) :   0.9314 B( 15-C , 33-H ) :   0.9435 B( 16-C , 17-C ) :   1.0088 
B( 16-C , 34-H ) :   0.9353 B( 16-C , 35-H ) :   0.9400 B( 17-C , 18-C ) :   0.9998 
B( 17-C , 36-H ) :   0.9376 B( 17-C , 37-H ) :   0.9268 B( 18-C , 38-H ) :   0.9185 


-------
TIMINGS
-------

Total SCF time: 0 days 0 hours 0 min 18 sec 

Total time                  ....      18.148 sec
Sum of individual times     ....      17.291 sec  ( 95.3%)

Fock matrix formation       ....      15.266 sec  ( 84.1%)
  Split-RI-J                ....       1.644 sec  ( 10.8% of F)
  Chain of spheres X        ....      11.856 sec  ( 77.7% of F)
  XC integration            ....       1.563 sec  ( 10.2% of F)
    Basis function eval.    ....       0.236 sec  ( 15.1% of XC)
    Density eval.           ....       0.163 sec  ( 10.4% of XC)
    XC-Functional eval.     ....       0.035 sec  (  2.2% of XC)
    XC-Potential eval.      ....       0.097 sec  (  6.2% of XC)
Diagonalization             ....       0.021 sec  (  0.1%)
Density matrix formation    ....       0.106 sec  (  0.6%)
Population analysis         ....       0.036 sec  (  0.2%)
Initial guess               ....       0.023 sec  (  0.1%)
Orbital Transformation      ....       0.000 sec  (  0.0%)
Orbital Orthonormalization  ....       0.015 sec  (  0.1%)
DIIS solution               ....       0.047 sec  (  0.3%)
SOSCF solution              ....       0.106 sec  (  0.6%)
Grid generation             ....       1.687 sec  (  9.3%)

Maximum memory used throughout the entire SCF-calculation: 77.9 MB

-------------------------   --------------------
FINAL SINGLE POINT ENERGY      -805.958050626345
-------------------------   --------------------

                                *** OPTIMIZATION RUN DONE ***

                            ***************************************
                            *     ORCA property calculations      *
                            ***************************************

                                    ---------------------
                                    Active property flags
                                    ---------------------
   (+) Dipole Moment


------------------------------------------------------------------------------
                       ORCA ELECTRIC PROPERTIES CALCULATION
------------------------------------------------------------------------------

Dipole Moment Calculation                       ... on
Quadrupole Moment Calculation                   ... off
Polarizability Calculation                      ... off
GBWName                                         ... compound_medoid_1/compound_medoid_1.gbw
Electron density                                ... compound_medoid_1/compound_medoid_1.scfp
The origin for moment calculation is the CENTER OF MASS  = (-0.807423, -0.365876 -0.142890)

-------------
DIPOLE MOMENT
-------------
                                X             Y             Z
Electronic contribution:    -13.28653      -6.14454      -2.88769
Nuclear contribution   :     15.36098       7.14525       2.79716
                        -----------------------------------------
Total Dipole Moment    :      2.07445       1.00071      -0.09053
                        -----------------------------------------
Magnitude (a.u.)       :      2.30498
Magnitude (Debye)      :      5.85881



--------------------
Rotational spectrum 
--------------------
 
Rotational constants in cm-1:     0.016694     0.011946     0.009685 
Rotational constants in MHz :   500.475699   358.123333   290.346021 

 Dipole components along the rotational axes: 
x,y,z [a.u.] :     2.254471    -0.069103    -0.474911 
x,y,z [Debye]:     5.730410    -0.175645    -1.207127 

 

======================   ALLOCATED NODES   ======================
	gpua074: flags=0x11 slots=1 max_slots=0 slots_inuse=0 state=UP
=================================================================

Timings for individual modules:

Sum of individual times         ...     2236.529 sec (=  37.275 min)
GTO integral calculation        ...      216.678 sec (=   3.611 min)   9.7 %
SCF iterations                  ...     1463.509 sec (=  24.392 min)  65.4 %
SCF Gradient evaluation         ...      549.814 sec (=   9.164 min)  24.6 %
Geometry relaxation             ...        6.528 sec (=   0.109 min)   0.3 %
                             ****ORCA TERMINATED NORMALLY****
TOTAL RUN TIME: 0 days 0 hours 40 minutes 34 seconds 550 msec
