
                                 *****************
                                 * O   R   C   A *
                                 *****************

                                            #,                                       
                                            ###                                      
                                            ####                                     
                                            #####                                    
                                            ######                                   
                                           ########,                                 
                                     ,,################,,,,,                         
                               ,,#################################,,                 
                          ,,##########################################,,             
                       ,#########################################, ''#####,          
                    ,#############################################,,   '####,        
                  ,##################################################,,,,####,       
                ,###########''''           ''''###############################       
              ,#####''   ,,,,##########,,,,          '''####'''          '####       
            ,##' ,,,,###########################,,,                        '##       
           ' ,,###''''                  '''############,,,                           
         ,,##''                                '''############,,,,        ,,,,,,###''
      ,#''                                            '''#######################'''  
     '                                                          ''''####''''         
             ,#######,   #######,   ,#######,      ##                                
            ,#'     '#,  ##    ##  ,#'     '#,    #''#        ######   ,####,        
            ##       ##  ##   ,#'  ##            #'  '#       #        #'  '#        
            ##       ##  #######   ##           ,######,      #####,   #    #        
            '#,     ,#'  ##    ##  '#,     ,#' ,#      #,         ##   #,  ,#        
             '#######'   ##     ##  '#######'  #'      '#     #####' # '####'        



                  #######################################################
                  #                        -***-                        #
                  #          Department of theory and spectroscopy      #
                  #    Directorship and core code : Frank Neese         #
                  #        Max Planck Institute fuer Kohlenforschung    #
                  #                Kaiser Wilhelm Platz 1               #
                  #                 D-45470 Muelheim/Ruhr               #
                  #                      Germany                        #
                  #                                                     #
                  #                  All rights reserved                #
                  #                        -***-                        #
                  #######################################################


                         Program Version 5.0.1 -  RELEASE  -


 With contributions from (in alphabetic order):
   Daniel Aravena         : Magnetic Suceptibility
   Michael Atanasov       : Ab Initio Ligand Field Theory (pilot matlab implementation)
   Alexander A. Auer      : GIAO ZORA, VPT2 properties, NMR spectrum
   Ute Becker             : Parallelization
   Giovanni Bistoni       : ED, misc. LED, open-shell LED, HFLD
   Martin Brehm           : Molecular dynamics
   Dmytro Bykov           : SCF Hessian
   Vijay G. Chilkuri      : MRCI spin determinant printing, contributions to CSF-ICE
   Dipayan Datta          : RHF DLPNO-CCSD density
   Achintya Kumar Dutta   : EOM-CC, STEOM-CC
   Dmitry Ganyushin       : Spin-Orbit,Spin-Spin,Magnetic field MRCI
   Miquel Garcia          : C-PCM and meta-GGA Hessian, CC/C-PCM, Gaussian charge scheme
   Yang Guo               : DLPNO-NEVPT2, F12-NEVPT2, CIM, IAO-localization
   Andreas Hansen         : Spin unrestricted coupled pair/coupled cluster methods
   Benjamin Helmich-Paris : MC-RPA, TRAH-SCF, COSX integrals
   Lee Huntington         : MR-EOM, pCC
   Robert Izsak           : Overlap fitted RIJCOSX, COSX-SCS-MP3, EOM
   Marcus Kettner         : VPT2
   Christian Kollmar      : KDIIS, OOCD, Brueckner-CCSD(T), CCSD density, CASPT2, CASPT2-K
   Simone Kossmann        : Meta GGA functionals, TD-DFT gradient, OOMP2, MP2 Hessian
   Martin Krupicka        : Initial AUTO-CI
   Lucas Lang             : DCDCAS
   Marvin Lechner         : AUTO-CI (C++ implementation), FIC-MRCC
   Dagmar Lenk            : GEPOL surface, SMD
   Dimitrios Liakos       : Extrapolation schemes; Compound Job, initial MDCI parallelization
   Dimitrios Manganas     : Further ROCIS development; embedding schemes
   Dimitrios Pantazis     : SARC Basis sets
   Anastasios Papadopoulos: AUTO-CI, single reference methods and gradients
   Taras Petrenko         : DFT Hessian,TD-DFT gradient, ASA, ECA, R-Raman, ABS, FL, XAS/XES, NRVS
   Peter Pinski           : DLPNO-MP2, DLPNO-MP2 Gradient
   Christoph Reimann      : Effective Core Potentials
   Marius Retegan         : Local ZFS, SOC
   Christoph Riplinger    : Optimizer, TS searches, QM/MM, DLPNO-CCSD(T), (RO)-DLPNO pert. Triples
   Tobias Risthaus        : Range-separated hybrids, TD-DFT gradient, RPA, STAB
   Michael Roemelt        : Original ROCIS implementation
   Masaaki Saitow         : Open-shell DLPNO-CCSD energy and density
   Barbara Sandhoefer     : DKH picture change effects
   Avijit Sen             : IP-ROCIS
   Kantharuban Sivalingam : CASSCF convergence, NEVPT2, FIC-MRCI
   Bernardo de Souza      : ESD, SOC TD-DFT
   Georgi Stoychev        : AutoAux, RI-MP2 NMR, DLPNO-MP2 response
   Willem Van den Heuvel  : Paramagnetic NMR
   Boris Wezisla          : Elementary symmetry handling
   Frank Wennmohs         : Technical directorship


 We gratefully acknowledge several colleagues who have allowed us to
 interface, adapt or use parts of their codes:
   Stefan Grimme, W. Hujo, H. Kruse, P. Pracht,  : VdW corrections, initial TS optimization,
                  C. Bannwarth, S. Ehlert          DFT functionals, gCP, sTDA/sTD-DF
   Ed Valeev, F. Pavosevic, A. Kumar             : LibInt (2-el integral package), F12 methods
   Garnet Chan, S. Sharma, J. Yang, R. Olivares  : DMRG
   Ulf Ekstrom                                   : XCFun DFT Library
   Mihaly Kallay                                 : mrcc  (arbitrary order and MRCC methods)
   Jiri Pittner, Ondrej Demel                    : Mk-CCSD
   Frank Weinhold                                : gennbo (NPA and NBO analysis)
   Christopher J. Cramer and Donald G. Truhlar   : smd solvation model
   Lars Goerigk                                  : TD-DFT with DH, B97 family of functionals
   V. Asgeirsson, H. Jonsson                     : NEB implementation
   FAccTs GmbH                                   : IRC, NEB, NEB-TS, DLPNO-Multilevel, CI-OPT
                                                   MM, QMMM, 2- and 3-layer-ONIOM, Crystal-QMMM,
                                                   LR-CPCM, SF, NACMEs, symmetry and pop. for TD-DFT,
                                                   nearIR, NL-DFT gradient (VV10), updates on ESD,
                                                   ML-optimized integration grids
   S Lehtola, MJT Oliveira, MAL Marques          : LibXC Library
   Liviu Ungur et al                             : ANISO software


 Your calculation uses the libint2 library for the computation of 2-el integrals
 For citations please refer to: http://libint.valeyev.net

 Your ORCA version has been built with support for libXC version: 5.1.0
 For citations please refer to: https://tddft.org/programs/libxc/

 This ORCA versions uses:
   CBLAS   interface :  Fast vector & matrix operations
   LAPACKE interface :  Fast linear algebra routines
   SCALAPACK package :  Parallel linear algebra routines
   Shared memory     :  Shared parallel matrices
   BLAS/LAPACK       :  OpenBLAS 0.3.15  USE64BITINT DYNAMIC_ARCH NO_AFFINITY Zen SINGLE_THREADED
        Core in use  :  Zen
   Copyright (c) 2011-2014, The OpenBLAS Project


================================================================================

----- Orbital basis set information -----
Your calculation utilizes the basis: 6-31G(d)
   H-He, Li-Ne : W. J. Hehre, R. Ditchfield and J.A. Pople, J. Chem. Phys. 56, 2257 (1972).
                 Note: He and Ne are unpublished basis sets taken from the Gaussian program.
                 Note: Li and B from J. D. Dill and J. A. Pople, J. Chem. Phys. 62, 2921 (1975).
   Na - Ar     : M. M. Francl, W. J. Pietro, W. J. Hehre, J. S. Binkley, M. S. Gordon, 
                 D. J. DeFrees and J. A. Pople, J. Chem. Phys. 77, 3654 (1982).
   K - Zn      : V. A. Rassolov, J. A. Pople, M. A. Ratner, and T. L. Windus, J. Chem. Phys. 109, 1223 (1998).

----- AuxJ basis set information -----
Your calculation utilizes the auxiliary basis: def2/J
   F. Weigend, Phys. Chem. Chem. Phys. 8, 1057 (2006).

================================================================================
                                        WARNINGS
                       Please study these warnings very carefully!
================================================================================


WARNING: Geometry Optimization
  ===> : Switching off AutoStart
         For restart on a previous wavefunction, please use MOREAD

INFO   : the flag for use of the SHARK integral package has been found!

================================================================================
                                       INPUT FILE
================================================================================
NAME = compound_medoid_8/compound_medoid_8.inp
|  1> ! B3LYP 6-31G(d) Opt TightSCF
|  2> %pal
|  3>    nprocs 16
|  4> end
|  5> 
|  6> * xyz 0 1
|  7> C    3.370287   0.955182   0.934529
|  8> N    3.401358  -0.063798  -0.123059
|  9> C    4.784165  -0.286445  -0.562848
| 10> S    2.690064  -1.562753   0.447288
| 11> O    3.561319  -2.732491   0.078221
| 12> O    2.531793  -1.549275   1.944088
| 13> N    1.133332  -1.801526  -0.294897
| 14> C    0.173127  -0.747736   0.077678
| 15> C    0.148220   0.397119  -0.954013
| 16> C   -0.770016   1.524754  -0.474477
| 17> C   -2.116121   1.019455  -0.011220
| 18> C   -3.168837   1.935743   0.138577
| 19> C   -4.409906   1.516883   0.622445
| 20> C   -4.614039   0.180258   0.971288
| 21> O   -5.859982  -0.223054   1.446369
| 22> C   -3.567577  -0.741350   0.839723
| 23> C   -2.310102  -0.330767   0.368395
| 24> C   -1.227733  -1.367867   0.176032
| 25> H    2.327320   1.126707   1.272487
| 26> H    3.991959   0.652457   1.806207
| 27> H    3.748283   1.922983   0.540717
| 28> H    4.798158  -0.990887  -1.421409
| 29> H    5.407413  -0.697268   0.262408
| 30> H    5.233677   0.666388  -0.917030
| 31> H    1.268976  -1.833201  -1.331941
| 32> H    0.417887  -0.331042   1.080663
| 33> H    1.166313   0.807990  -1.107625
| 34> H   -0.214605   0.018345  -1.935537
| 35> H   -0.282267   2.056807   0.371097
| 36> H   -0.904254   2.251899  -1.304783
| 37> H   -3.026475   2.978437  -0.117980
| 38> H   -5.214630   2.233376   0.728089
| 39> H   -6.041218  -1.185163   1.707894
| 40> H   -3.734524  -1.779063   1.102376
| 41> H   -1.240767  -2.085417   1.025909
| 42> H   -1.450595  -1.935681  -0.753970
| 43> *
| 44> 
| 45>                          ****END OF INPUT****
================================================================================

                       *****************************
                       * Geometry Optimization Run *
                       *****************************

Geometry optimization settings:
Update method            Update   .... BFGS
Choice of coordinates    CoordSys .... Z-matrix Internals
Initial Hessian          InHess   .... Almoef's Model

Convergence Tolerances:
Energy Change            TolE     ....  5.0000e-06 Eh
Max. Gradient            TolMAXG  ....  3.0000e-04 Eh/bohr
RMS Gradient             TolRMSG  ....  1.0000e-04 Eh/bohr
Max. Displacement        TolMAXD  ....  4.0000e-03 bohr
RMS Displacement         TolRMSD  ....  2.0000e-03 bohr
Strict Convergence                ....  False
------------------------------------------------------------------------------
                        ORCA OPTIMIZATION COORDINATE SETUP
------------------------------------------------------------------------------

The optimization will be done in new redundant internal coordinates
Making redundant internal coordinates   ...  (new redundants) done
Evaluating the initial hessian          ...  (Almloef) done
Evaluating the coordinates              ...  done
Calculating the B-matrix                .... done
Calculating the G-matrix                .... done
Diagonalizing the G-matrix              .... done
Small eigenvalue found = 3.509e-03
Small eigenvalue found = 1.075e-02
Small eigenvalue found = 1.335e-02
Small eigenvalue found = 2.487e-02
The first mode is                       ....   97
The number of degrees of freedom        ....  102

    -----------------------------------------------------------------
                    Redundant Internal Coordinates


    -----------------------------------------------------------------
         Definition                    Initial Value    Approx d2E/dq
    -----------------------------------------------------------------
      1. B(N   1,C   0)                  1.4689         0.418731   
      2. B(C   2,N   1)                  1.4680         0.420115   
      3. B(S   3,N   1)                  1.7545         0.395534   
      4. B(O   4,S   3)                  1.5045         0.990678   
      5. B(O   5,S   3)                  1.5052         0.988192   
      6. B(N   6,S   3)                  1.7411         0.415490   
      7. B(C   7,N   6)                  1.4735         0.411732   
      8. B(C   8,C   7)                  1.5413         0.358344   
      9. B(C   9,C   8)                  1.5312         0.371887   
     10. B(C  10,C   9)                  1.5106         0.401160   
     11. B(C  11,C  10)                  1.4037         0.594238   
     12. B(C  12,C  11)                  1.3964         0.610365   
     13. B(C  13,C  12)                  1.3964         0.610282   
     14. B(O  14,C  13)                  1.3931         0.553254   
     15. B(C  15,C  13)                  1.4006         0.600877   
     16. B(C  16,C  15)                  1.4043         0.592888   
     17. B(C  16,C  10)                  1.4159         0.568043   
     18. B(C  17,C  16)                  1.5113         0.400104   
     19. B(C  17,C   7)                  1.5351         0.366591   
     20. B(H  18,C   0)                  1.1097         0.334970   
     21. B(H  19,C   0)                  1.1126         0.331376   
     22. B(H  20,C   0)                  1.1111         0.333206   
     23. B(H  21,C   2)                  1.1107         0.333783   
     24. B(H  22,C   2)                  1.1128         0.331201   
     25. B(H  23,C   2)                  1.1115         0.332772   
     26. B(H  24,N   6)                  1.0464         0.378608   
     27. B(H  25,C   7)                  1.1133         0.330514   
     28. B(H  26,C   8)                  1.1086         0.336355   
     29. B(H  27,C   8)                  1.1129         0.331070   
     30. B(H  28,C   9)                  1.1117         0.332454   
     31. B(H  29,C   9)                  1.1118         0.332348   
     32. B(H  30,C  11)                  1.0832         0.369223   
     33. B(H  31,C  12)                  1.0826         0.369973   
     34. B(H  32,O  14)                  1.0134         0.427402   
     35. B(H  33,C  15)                  1.0834         0.368969   
     36. B(H  34,C  17)                  1.1124         0.331706   
     37. B(H  35,C  17)                  1.1122         0.331901   
     38. A(N   1,C   0,H  20)          109.9886         0.324318   
     39. A(N   1,C   0,H  19)          111.3150         0.324025   
     40. A(H  19,C   0,H  20)          108.9399         0.283628   
     41. A(H  18,C   0,H  20)          107.0403         0.284104   
     42. A(H  18,C   0,H  19)          109.1840         0.283861   
     43. A(N   1,C   0,H  18)          110.2654         0.324599   
     44. A(C   0,N   1,C   2)          109.9265         0.373373   
     45. A(C   0,N   1,S   3)          110.4897         0.389585   
     46. A(C   2,N   1,S   3)          110.4687         0.389810   
     47. A(H  22,C   2,H  23)          109.0445         0.283547   
     48. A(H  21,C   2,H  23)          106.9957         0.283889   
     49. A(H  21,C   2,H  22)          109.3946         0.283681   
     50. A(N   1,C   2,H  23)          110.2668         0.324424   
     51. A(N   1,C   2,H  22)          111.1855         0.324172   
     52. A(N   1,C   2,H  21)          109.8548         0.324586   
     53. A(N   1,S   3,O   5)          110.9928         0.480180   
     54. A(N   1,S   3,N   6)          109.9435         0.410522   
     55. A(O   5,S   3,N   6)          109.3365         0.484562   
     56. A(N   1,S   3,O   4)          110.4713         0.480403   
     57. A(O   4,S   3,N   6)          107.8537         0.484787   
     58. A(O   4,S   3,O   5)          108.1670         0.570536   
     59. A(S   3,N   6,H  24)          108.1034         0.345073   
     60. A(C   7,N   6,H  24)          110.8988         0.327487   
     61. A(S   3,N   6,C   7)          112.1349         0.391796   
     62. A(C   8,C   7,C  17)          109.1587         0.359621   
     63. A(N   6,C   7,C  17)          108.7808         0.365964   
     64. A(N   6,C   7,C   8)          111.8686         0.364542   
     65. A(C   8,C   7,H  25)          109.1813         0.317632   
     66. A(N   6,C   7,H  25)          110.6212         0.322992   
     67. A(C  17,C   7,H  25)          107.1028         0.318813   
     68. A(H  26,C   8,H  27)          107.6589         0.284002   
     69. A(C   7,C   8,C   9)          110.3078         0.360501   
     70. A(C   9,C   8,H  27)          109.3504         0.319648   
     71. A(C   7,C   8,H  27)          110.0481         0.317719   
     72. A(C   9,C   8,H  26)          108.7344         0.320476   
     73. A(C   7,C   8,H  26)          110.6834         0.318541   
     74. A(C  10,C   9,H  29)          109.8888         0.323842   
     75. A(C  10,C   9,H  28)          108.5290         0.323859   
     76. A(C   8,C   9,C  10)          112.5863         0.367526   
     77. A(C   8,C   9,H  28)          109.1192         0.319866   
     78. A(H  28,C   9,H  29)          107.9373         0.283657   
     79. A(C   8,C   9,H  29)          108.6723         0.319849   
     80. A(C   9,C  10,C  11)          118.8607         0.398696   
     81. A(C  11,C  10,C  16)          119.4155         0.424064   
     82. A(C   9,C  10,C  16)          121.5525         0.395552   
     83. A(C  10,C  11,C  12)          120.5137         0.429558   
     84. A(C  12,C  11,H  30)          119.1854         0.353469   
     85. A(C  10,C  11,H  30)          120.3007         0.351870   
     86. A(C  13,C  12,H  31)          120.0290         0.353582   
     87. A(C  11,C  12,H  31)          119.7312         0.353590   
     88. A(C  11,C  12,C  13)          120.2398         0.431618   
     89. A(O  14,C  13,C  15)          120.6474         0.420160   
     90. A(C  12,C  13,C  15)          119.8113         0.430405   
     91. A(C  12,C  13,O  14)          119.5413         0.421326   
     92. A(C  13,O  14,H  32)          121.5222         0.351072   
     93. A(C  16,C  15,H  33)          119.9617         0.351694   
     94. A(C  13,C  15,H  33)          119.4956         0.352491   
     95. A(C  13,C  15,C  16)          120.5426         0.428178   
     96. A(C  15,C  16,C  17)          118.9071         0.398352   
     97. A(C  10,C  16,C  17)          121.4758         0.395369   
     98. A(C  10,C  16,C  15)          119.4379         0.423891   
     99. A(C   7,C  17,H  34)          108.6765         0.319000   
    100. A(C   7,C  17,C  16)          112.6115         0.366457   
    101. A(H  34,C  17,H  35)          107.8902         0.283499   
    102. A(C  16,C  17,H  35)          108.2559         0.323631   
    103. A(C   7,C  17,H  35)          109.6038         0.319031   
    104. A(C  16,C  17,H  34)          109.6955         0.323599   
    105. D(C   2,N   1,C   0,H  18)   -179.9034         0.014951   
    106. D(C   2,N   1,C   0,H  19)    -58.5663         0.014951   
    107. D(S   3,N   1,C   0,H  19)     63.6118         0.014951   
    108. D(C   2,N   1,C   0,H  20)     62.2756         0.014951   
    109. D(S   3,N   1,C   0,H  20)   -175.5464         0.014951   
    110. D(S   3,N   1,C   0,H  18)    -57.7254         0.014951   
    111. D(H  22,C   2,N   1,C   0)     63.6438         0.015050   
    112. D(H  21,C   2,N   1,C   0)   -175.1173         0.015050   
    113. D(H  23,C   2,N   1,C   0)    -57.4315         0.015050   
    114. D(H  23,C   2,N   1,S   3)   -179.6220         0.015050   
    115. D(H  22,C   2,N   1,S   3)    -58.5467         0.015050   
    116. D(H  21,C   2,N   1,S   3)     62.6922         0.015050   
    117. D(O   4,S   3,N   1,C   2)    -11.7925         0.004649   
    118. D(O   5,S   3,N   1,C   0)    -13.6705         0.004649   
    119. D(O   4,S   3,N   1,C   0)   -133.6516         0.004649   
    120. D(N   6,S   3,N   1,C   2)   -130.7127         0.004649   
    121. D(N   6,S   3,N   1,C   0)    107.4282         0.004649   
    122. D(O   5,S   3,N   1,C   2)    108.1885         0.004649   
    123. D(H  24,N   6,S   3,O   5)   -178.5158         0.004990   
    124. D(H  24,N   6,S   3,N   1)     59.3964         0.004990   
    125. D(H  24,N   6,S   3,O   4)    -61.1175         0.004990   
    126. D(C   7,N   6,S   3,O   4)    176.3256         0.004990   
    127. D(C   7,N   6,S   3,O   5)     58.9273         0.004990   
    128. D(C   7,N   6,S   3,N   1)    -63.1604         0.004990   
    129. D(H  25,C   7,N   6,H  24)   -149.0754         0.014460   
    130. D(H  25,C   7,N   6,S   3)    -28.1182         0.014460   
    131. D(C  17,C   7,N   6,H  24)     93.5470         0.014460   
    132. D(C   8,C   7,N   6,H  24)    -27.1172         0.014460   
    133. D(C   8,C   7,N   6,S   3)     93.8401         0.014460   
    134. D(C  17,C   7,N   6,S   3)   -145.4957         0.014460   
    135. D(C   9,C   8,C   7,N   6)   -175.2216         0.010309   
    136. D(H  27,C   8,C   7,C  17)    -56.4055         0.010309   
    137. D(H  27,C   8,C   7,N   6)     64.0387         0.010309   
    138. D(H  26,C   8,C   7,H  25)     67.9420         0.010309   
    139. D(H  26,C   8,C   7,C  17)   -175.2828         0.010309   
    140. D(H  26,C   8,C   7,N   6)    -54.8386         0.010309   
    141. D(C   9,C   8,C   7,H  25)    -52.4410         0.010309   
    142. D(H  27,C   8,C   7,H  25)   -173.1807         0.010309   
    143. D(C   9,C   8,C   7,C  17)     64.3342         0.010309   
    144. D(H  29,C   9,C   8,H  27)    -49.4167         0.011049   
    145. D(H  29,C   9,C   8,H  26)     67.8803         0.011049   
    146. D(H  28,C   9,C   8,H  26)    -49.5853         0.011049   
    147. D(H  28,C   9,C   8,C   7)     71.9614         0.011049   
    148. D(C  10,C   9,C   8,H  27)     72.5552         0.011049   
    149. D(H  29,C   9,C   8,C   7)   -170.5730         0.011049   
    150. D(C  10,C   9,C   8,H  26)   -170.1478         0.011049   
    151. D(C  10,C   9,C   8,C   7)    -48.6011         0.011049   
    152. D(H  28,C   9,C   8,H  27)   -166.8823         0.011049   
    153. D(C  16,C  10,C   9,H  29)    141.7522         0.011940   
    154. D(C  16,C  10,C   9,H  28)   -100.4296         0.011940   
    155. D(C  16,C  10,C   9,C   8)     20.4713         0.011940   
    156. D(C  11,C  10,C   9,H  29)    -43.0331         0.011940   
    157. D(C  11,C  10,C   9,H  28)     74.7851         0.011940   
    158. D(C  11,C  10,C   9,C   8)   -164.3140         0.011940   
    159. D(H  30,C  11,C  10,C  16)    178.0734         0.024318   
    160. D(H  30,C  11,C  10,C   9)      2.7546         0.024318   
    161. D(C  12,C  11,C  10,C  16)     -1.7651         0.024318   
    162. D(C  12,C  11,C  10,C   9)   -177.0840         0.024318   
    163. D(H  31,C  12,C  11,H  30)      0.4771         0.025731   
    164. D(H  31,C  12,C  11,C  10)   -179.6825         0.025731   
    165. D(C  13,C  12,C  11,H  30)   -179.4227         0.025731   
    166. D(C  13,C  12,C  11,C  10)      0.4176         0.025731   
    167. D(O  14,C  13,C  12,C  11)   -179.6894         0.025724   
    168. D(C  15,C  13,C  12,H  31)   -179.6496         0.025724   
    169. D(C  15,C  13,C  12,C  11)      0.2499         0.025724   
    170. D(O  14,C  13,C  12,H  31)      0.4111         0.025724   
    171. D(H  32,O  14,C  13,C  15)      0.0436         0.022150   
    172. D(H  32,O  14,C  13,C  12)    179.9824         0.022150   
    173. D(H  33,C  15,C  13,O  14)      0.5539         0.024894   
    174. D(H  33,C  15,C  13,C  12)   -179.3846         0.024894   
    175. D(C  16,C  15,C  13,O  14)   -179.6055         0.024894   
    176. D(C  16,C  15,C  13,C  12)      0.4559         0.024894   
    177. D(C  17,C  16,C  15,H  33)      2.8298         0.024202   
    178. D(C  17,C  16,C  15,C  13)   -177.0100         0.024202   
    179. D(C  10,C  16,C  15,H  33)    178.0370         0.024202   
    180. D(C  10,C  16,C  15,C  13)     -1.8028         0.024202   
    181. D(C  17,C  16,C  10,C  11)    177.5208         0.022128   
    182. D(C  17,C  16,C  10,C   9)     -7.2905         0.022128   
    183. D(C  15,C  16,C  10,C  11)      2.4406         0.022128   
    184. D(C  15,C  16,C  10,C   9)    177.6293         0.022128   
    185. D(H  35,C  17,C  16,C  10)    -98.9888         0.011880   
    186. D(H  34,C  17,C  16,C  15)    -41.3771         0.011880   
    187. D(H  34,C  17,C  16,C  10)    143.5172         0.011880   
    188. D(C   7,C  17,C  16,C  10)     22.3502         0.011880   
    189. D(H  35,C  17,C   7,H  25)   -171.1941         0.010756   
    190. D(H  35,C  17,C   7,C   8)     70.7185         0.010756   
    191. D(H  35,C  17,C   7,N   6)    -51.6010         0.010756   
    192. D(H  34,C  17,C   7,H  25)    -53.5090         0.010756   
    193. D(H  34,C  17,C   7,C   8)   -171.5964         0.010756   
    194. D(C   7,C  17,C  16,C  15)   -162.5442         0.011880   
    195. D(H  34,C  17,C   7,N   6)     66.0841         0.010756   
    196. D(C  16,C  17,C   7,H  25)     68.2376         0.010756   
    197. D(C  16,C  17,C   7,C   8)    -49.8498         0.010756   
    198. D(H  35,C  17,C  16,C  15)     76.1168         0.011880   
    199. D(C  16,C  17,C   7,N   6)   -172.1693         0.010756   
    -----------------------------------------------------------------

Number of atoms                         .... 36
Number of degrees of freedom            .... 199

         *************************************************************
         *                GEOMETRY OPTIMIZATION CYCLE   1            *
         *************************************************************
---------------------------------
CARTESIAN COORDINATES (ANGSTROEM)
---------------------------------
  C      3.370287    0.955182    0.934529
  N      3.401358   -0.063798   -0.123059
  C      4.784165   -0.286445   -0.562848
  S      2.690064   -1.562753    0.447288
  O      3.561319   -2.732491    0.078221
  O      2.531793   -1.549275    1.944088
  N      1.133332   -1.801526   -0.294897
  C      0.173127   -0.747736    0.077678
  C      0.148220    0.397119   -0.954013
  C     -0.770016    1.524754   -0.474477
  C     -2.116121    1.019455   -0.011220
  C     -3.168837    1.935743    0.138577
  C     -4.409906    1.516883    0.622445
  C     -4.614039    0.180258    0.971288
  O     -5.859982   -0.223054    1.446369
  C     -3.567577   -0.741350    0.839723
  C     -2.310102   -0.330767    0.368395
  C     -1.227733   -1.367867    0.176032
  H      2.327320    1.126707    1.272487
  H      3.991959    0.652457    1.806207
  H      3.748283    1.922983    0.540717
  H      4.798158   -0.990887   -1.421409
  H      5.407413   -0.697268    0.262408
  H      5.233677    0.666388   -0.917030
  H      1.268976   -1.833201   -1.331941
  H      0.417887   -0.331042    1.080663
  H      1.166313    0.807990   -1.107625
  H     -0.214605    0.018345   -1.935537
  H     -0.282267    2.056807    0.371097
  H     -0.904254    2.251899   -1.304783
  H     -3.026475    2.978437   -0.117980
  H     -5.214630    2.233376    0.728089
  H     -6.041218   -1.185163    1.707894
  H     -3.734524   -1.779063    1.102376
  H     -1.240767   -2.085417    1.025909
  H     -1.450595   -1.935681   -0.753970

----------------------------
CARTESIAN COORDINATES (A.U.)
----------------------------
  NO LB      ZA    FRAG     MASS         X           Y           Z
   0 C     6.0000    0    12.011    6.368919    1.805032    1.766004
   1 N     7.0000    0    14.007    6.427635   -0.120561   -0.232548
   2 C     6.0000    0    12.011    9.040762   -0.541303   -1.063629
   3 S    16.0000    0    32.060    5.083484   -2.953175    0.845252
   4 O     8.0000    0    15.999    6.729918   -5.163660    0.147816
   5 O     8.0000    0    15.999    4.784395   -2.927705    3.673794
   6 N     7.0000    0    14.007    2.141687   -3.404391   -0.557275
   7 C     6.0000    0    12.011    0.327163   -1.413016    0.146790
   8 C     6.0000    0    12.011    0.280095    0.750446   -1.802823
   9 C     6.0000    0    12.011   -1.455119    2.881367   -0.896632
  10 C     6.0000    0    12.011   -3.998889    1.926491   -0.021203
  11 C     6.0000    0    12.011   -5.988234    3.658024    0.261873
  12 C     6.0000    0    12.011   -8.333515    2.866493    1.176251
  13 C     6.0000    0    12.011   -8.719270    0.340638    1.835468
  14 O     8.0000    0    15.999  -11.073761   -0.421511    2.733241
  15 C     6.0000    0    12.011   -6.741743   -1.400948    1.586846
  16 C     6.0000    0    12.011   -4.365460   -0.625059    0.696166
  17 C     6.0000    0    12.011   -2.320079   -2.584894    0.332652
  18 H     1.0000    0     1.008    4.397997    2.129168    2.404652
  19 H     1.0000    0     1.008    7.543709    1.232965    3.413237
  20 H     1.0000    0     1.008    7.083228    3.633911    1.021807
  21 H     1.0000    0     1.008    9.067205   -1.872505   -2.686074
  22 H     1.0000    0     1.008   10.218530   -1.317646    0.495879
  23 H     1.0000    0     1.008    9.890216    1.259291   -1.732936
  24 H     1.0000    0     1.008    2.398017   -3.464248   -2.517004
  25 H     1.0000    0     1.008    0.789692   -0.625579    2.042157
  26 H     1.0000    0     1.008    2.204012    1.526880   -2.093108
  27 H     1.0000    0     1.008   -0.405545    0.034667   -3.657635
  28 H     1.0000    0     1.008   -0.533407    3.886802    0.701272
  29 H     1.0000    0     1.008   -1.708792    4.255472   -2.465683
  30 H     1.0000    0     1.008   -5.719209    5.628430   -0.222950
  31 H     1.0000    0     1.008   -9.854223    4.220469    1.375889
  32 H     1.0000    0     1.008  -11.416248   -2.239633    3.227452
  33 H     1.0000    0     1.008   -7.057228   -3.361942    2.083189
  34 H     1.0000    0     1.008   -2.344710   -3.940867    1.938687
  35 H     1.0000    0     1.008   -2.741227   -3.657907   -1.424797

--------------------------------
INTERNAL COORDINATES (ANGSTROEM)
--------------------------------
 C      0   0   0     0.000000000000     0.00000000     0.00000000
 N      1   0   0     1.468937719982     0.00000000     0.00000000
 C      2   1   0     1.468039934872   109.92653466     0.00000000
 S      2   1   3     1.754451751081   110.48967142   122.17803782
 O      4   2   1     1.504520758965   110.47125178   226.34842436
 O      4   2   1     1.505204838527   110.99275597   346.32945034
 N      4   2   1     1.741053026067   109.94349258   107.42823674
 C      7   4   2     1.473526089606   112.13488792   296.83959335
 C      8   7   4     1.541330480187   111.86857071    93.84006047
 C      9   8   7     1.531232451399   110.30779226   184.77838836
 C     10   9   8     1.510606765004   112.58626171   311.39889760
 C     11  10   9     1.403650176080   118.86071769   195.68602481
 C     12  11  10     1.396361057816   120.51365130   182.91604758
 C     13  12  11     1.396398263735   120.23976115     0.41762623
 O     14  13  12     1.393103185394   119.54125569   180.31064477
 C     14  13  12     1.400626064420   119.81127130     0.24988974
 C     16  14  13     1.404269154791   120.54256209     0.45590187
 C     17  16  14     1.511324778441   118.90705962   182.98998271
 H      1   2   3     1.109692118778   110.26544934   180.09655012
 H      1   2   3     1.112627986747   111.31499553   301.43371347
 H      1   2   3     1.111128994744   109.98864801    62.27560382
 H      3   2   1     1.110658059951   109.85484700   184.88273806
 H      3   2   1     1.112771797077   111.18548604    63.64383481
 H      3   2   1     1.111483986910   110.26677140   302.56851627
 H      7   4   2     1.046356945930   108.10335777    59.39642559
 H      8   7   4     1.113337440968   110.62119140   331.88181636
 H      9   8   7     1.108568889079   110.68343887   305.16139580
 H      9   8   7     1.112879636923   110.04808942    64.03865818
 H     10   9   8     1.111744067349   109.11924938    71.96139313
 H     10   9   8     1.111830807859   108.67229756   189.42698621
 H     12  11  10     1.083189369838   120.30071650     2.75457007
 H     13  12  11     1.082637330763   119.73118299   180.31745371
 H     15  14  13     1.013358545236   121.52224934   179.98236184
 H     16  14  13     1.083377205588   119.49558935   180.61537395
 H     18  17  16     1.112357317945   109.69553276   318.62286734
 H     18  17  16     1.112197792501   108.25590042    76.11679524

---------------------------
INTERNAL COORDINATES (A.U.)
---------------------------
 C      0   0   0     0.000000000000     0.00000000     0.00000000
 N      1   0   0     2.775889998552     0.00000000     0.00000000
 C      2   1   0     2.774193430568   109.92653466     0.00000000
 S      2   1   3     3.315433324721   110.48967142   122.17803782
 O      4   2   1     2.843132197244   110.47125178   226.34842436
 O      4   2   1     2.844424920269   110.99275597   346.32945034
 N      4   2   1     3.290113403902   109.94349258   107.42823674
 C      7   4   2     2.784560760544   112.13488792   296.83959335
 C      8   7   4     2.912692489420   111.86857071    93.84006047
 C      9   8   7     2.893609980517   110.30779226   184.77838836
 C     10   9   8     2.854633081906   112.58626171   311.39889760
 C     11  10   9     2.652514420621   118.86071769   195.68602481
 C     12  11  10     2.638739983345   120.51365130   182.91604758
 C     13  12  11     2.638810292343   120.23976115     0.41762623
 O     14  13  12     2.632583496687   119.54125569   180.31064477
 C     14  13  12     2.646799677786   119.81127130     0.24988974
 C     16  14  13     2.653684120868   120.54256209     0.45590187
 C     17  16  14     2.855989930663   118.90705962   182.98998271
 H      1   2   3     2.097014197461   110.26544934   180.09655012
 H      1   2   3     2.102562183888   111.31499553   301.43371347
 H      1   2   3     2.099729499526   109.98864801    62.27560382
 H      3   2   1     2.098839561740   109.85484700   184.88273806
 H      3   2   1     2.102833946026   111.18548604    63.64383481
 H      3   2   1     2.100400337499   110.26677140   302.56851627
 H      7   4   2     1.977328066135   108.10335777    59.39642559
 H      8   7   4     2.103902858070   110.62119140   331.88181636
 H      9   8   7     2.094891600945   110.68343887   305.16139580
 H      9   8   7     2.103037733801   110.04808942    64.03865818
 H     10   9   8     2.100891818302   109.11924938    71.96139313
 H     10   9   8     2.101055734110   108.67229756   189.42698621
 H     12  11  10     2.046931260168   120.30071650     2.75457007
 H     13  12  11     2.045888057501   119.73118299   180.31745371
 H     15  14  13     1.914970125964   121.52224934   179.98236184
 H     16  14  13     2.047286218294   119.49558935   180.61537395
 H     18  17  16     2.102050693979   109.69553276   318.62286734
 H     18  17  16     2.101749234579   108.25590042    76.11679524

---------------------
BASIS SET INFORMATION
---------------------
There are 5 groups of distinct atoms

 Group   1 Type C   : 10s4p1d contracted to 3s2p1d pattern {631/31/1}
 Group   2 Type N   : 10s4p1d contracted to 3s2p1d pattern {631/31/1}
 Group   3 Type S   : 16s10p1d contracted to 4s3p1d pattern {6631/631/1}
 Group   4 Type O   : 10s4p1d contracted to 3s2p1d pattern {631/31/1}
 Group   5 Type H   : 4s contracted to 2s pattern {31}

Atom   0C    basis set group =>   1
Atom   1N    basis set group =>   2
Atom   2C    basis set group =>   1
Atom   3S    basis set group =>   3
Atom   4O    basis set group =>   4
Atom   5O    basis set group =>   4
Atom   6N    basis set group =>   2
Atom   7C    basis set group =>   1
Atom   8C    basis set group =>   1
Atom   9C    basis set group =>   1
Atom  10C    basis set group =>   1
Atom  11C    basis set group =>   1
Atom  12C    basis set group =>   1
Atom  13C    basis set group =>   1
Atom  14O    basis set group =>   4
Atom  15C    basis set group =>   1
Atom  16C    basis set group =>   1
Atom  17C    basis set group =>   1
Atom  18H    basis set group =>   5
Atom  19H    basis set group =>   5
Atom  20H    basis set group =>   5
Atom  21H    basis set group =>   5
Atom  22H    basis set group =>   5
Atom  23H    basis set group =>   5
Atom  24H    basis set group =>   5
Atom  25H    basis set group =>   5
Atom  26H    basis set group =>   5
Atom  27H    basis set group =>   5
Atom  28H    basis set group =>   5
Atom  29H    basis set group =>   5
Atom  30H    basis set group =>   5
Atom  31H    basis set group =>   5
Atom  32H    basis set group =>   5
Atom  33H    basis set group =>   5
Atom  34H    basis set group =>   5
Atom  35H    basis set group =>   5
---------------------------------
AUXILIARY/J BASIS SET INFORMATION
---------------------------------
There are 5 groups of distinct atoms

 Group   1 Type C   : 12s5p4d2f1g contracted to 6s4p3d1f1g pattern {711111/2111/211/2/1}
 Group   2 Type N   : 12s5p4d2f1g contracted to 6s4p3d1f1g pattern {711111/2111/211/2/1}
 Group   3 Type S   : 14s5p5d2f1g contracted to 8s4p3d1f1g pattern {71111111/2111/311/2/1}
 Group   4 Type O   : 12s5p4d2f1g contracted to 6s4p3d1f1g pattern {711111/2111/211/2/1}
 Group   5 Type H   : 5s2p1d contracted to 3s1p1d pattern {311/2/1}

Atom   0C    basis set group =>   1
Atom   1N    basis set group =>   2
Atom   2C    basis set group =>   1
Atom   3S    basis set group =>   3
Atom   4O    basis set group =>   4
Atom   5O    basis set group =>   4
Atom   6N    basis set group =>   2
Atom   7C    basis set group =>   1
Atom   8C    basis set group =>   1
Atom   9C    basis set group =>   1
Atom  10C    basis set group =>   1
Atom  11C    basis set group =>   1
Atom  12C    basis set group =>   1
Atom  13C    basis set group =>   1
Atom  14O    basis set group =>   4
Atom  15C    basis set group =>   1
Atom  16C    basis set group =>   1
Atom  17C    basis set group =>   1
Atom  18H    basis set group =>   5
Atom  19H    basis set group =>   5
Atom  20H    basis set group =>   5
Atom  21H    basis set group =>   5
Atom  22H    basis set group =>   5
Atom  23H    basis set group =>   5
Atom  24H    basis set group =>   5
Atom  25H    basis set group =>   5
Atom  26H    basis set group =>   5
Atom  27H    basis set group =>   5
Atom  28H    basis set group =>   5
Atom  29H    basis set group =>   5
Atom  30H    basis set group =>   5
Atom  31H    basis set group =>   5
Atom  32H    basis set group =>   5
Atom  33H    basis set group =>   5
Atom  34H    basis set group =>   5
Atom  35H    basis set group =>   5

======================   ALLOCATED NODES   ======================
	gpua068: flags=0x11 slots=1 max_slots=0 slots_inuse=0 state=UP
=================================================================


           ************************************************************
           *        Program running with 16 parallel MPI-processes    *
           *              working on a common directory               *
           ************************************************************
------------------------------------------------------------------------------
                           ORCA GTO INTEGRAL CALCULATION
                           -- RI-GTO INTEGRALS CHOSEN --
------------------------------------------------------------------------------
------------------------------------------------------------------------------
                   ___                                                        
                  /   \      - P O W E R E D   B Y -                         
                 /     \                                                     
                 |  |  |   _    _      __       _____    __    __             
                 |  |  |  | |  | |    /  \     |  _  \  |  |  /  |          
                  \  \/   | |  | |   /    \    | | | |  |  | /  /          
                 / \  \   | |__| |  /  /\  \   | |_| |  |  |/  /          
                |  |  |   |  __  | /  /__\  \  |    /   |      \           
                |  |  |   | |  | | |   __   |  |    \   |  |\   \          
                \     /   | |  | | |  |  |  |  | |\  \  |  | \   \       
                 \___/    |_|  |_| |__|  |__|  |_| \__\ |__|  \__/        
                                                                              
                      - O R C A' S   B I G   F R I E N D -                    
                                      &                                       
                       - I N T E G R A L  F E E D E R -                       
                                                                              
 v1 FN, 2020, v2 2021                                                         
------------------------------------------------------------------------------


Reading SHARK input file compound_medoid_8/compound_medoid_8.SHARKINP.tmp ... ok
----------------------
SHARK INTEGRAL PACKAGE
----------------------

Number of atoms                             ...     36
Number of basis functions                   ...    292
Number of shells                            ...    146
Maximum angular momentum                    ...      2
Integral batch strategy                     ... SHARK/LIBINT Hybrid
RI-J (if used) integral strategy            ... SPLIT-RIJ (Revised 2003 algorithm where possible)
Printlevel                                  ...      1
Contraction scheme used                     ... SEGMENTED contraction
Coulomb Range Separation                    ... NOT USED
Exchange Range Separation                   ... NOT USED
Finite Nucleus Model                        ... NOT USED
Auxiliary Coulomb fitting basis             ... AVAILABLE
   # of basis functions in Aux-J            ...   1082
   # of shells in Aux-J                     ...    362
   Maximum angular momentum in Aux-J        ...      4
Auxiliary J/K fitting basis                 ... NOT available
Auxiliary Correlation fitting basis         ... NOT available
Auxiliary 'external' fitting basis          ... NOT available
Integral threshold                          ...     2.500000e-11
Primitive cut-off                           ...     2.500000e-12
Primitive pair pre-selection threshold      ...     2.500000e-12

Calculating pre-screening integrals         ... done (  0.1 sec) Dimension = 146
Organizing shell pair data                  ... done (  0.0 sec)
Shell pair information
Total number of shell pairs                 ...     10731
Shell pairs after pre-screening             ...      7972
Total number of primitive shell pairs       ...     63297
Primitive shell pairs kept                  ...     26757
          la=0 lb=0:   2997 shell pairs
          la=1 lb=0:   2652 shell pairs
          la=1 lb=1:    597 shell pairs
          la=2 lb=0:   1104 shell pairs
          la=2 lb=1:    512 shell pairs
          la=2 lb=2:    110 shell pairs

Calculating one electron integrals          ... done (  0.0 sec)
Calculating RI/J V-Matrix + Cholesky decomp.... done (  0.2 sec)
Calculating Nuclear repulsion               ... done (  0.0 sec) ENN=   1520.197564440283 Eh

SHARK setup successfully completed in   0.4 seconds

Maximum memory used throughout the entire GTOINT-calculation: 17.3 MB

======================   ALLOCATED NODES   ======================
	gpua068: flags=0x11 slots=1 max_slots=0 slots_inuse=0 state=UP
=================================================================


           ************************************************************
           *        Program running with 16 parallel MPI-processes    *
           *              working on a common directory               *
           ************************************************************
-------------------------------------------------------------------------------
                                 ORCA SCF
-------------------------------------------------------------------------------

------------
SCF SETTINGS
------------
Hamiltonian:
 Density Functional     Method          .... DFT(GTOs)
 Exchange Functional    Exchange        .... B88
   X-Alpha parameter    XAlpha          ....  0.666667
   Becke's b parameter  XBeta           ....  0.004200
 Correlation Functional Correlation     .... LYP
 LDA part of GGA corr.  LDAOpt          .... VWN-5
 Gradients option       PostSCFGGA      .... off
 Hybrid DFT is turned on
   Fraction HF Exchange ScalHFX         ....  0.200000
   Scaling of DF-GGA-X  ScalDFX         ....  0.720000
   Scaling of DF-GGA-C  ScalDFC         ....  0.810000
   Scaling of DF-LDA-C  ScalLDAC        ....  1.000000
   Perturbative correction              ....  0.000000
   Density functional embedding theory  .... OFF
   NL short-range parameter             ....  4.800000
 RI-approximation to the Coulomb term is turned on
   Number of AuxJ basis functions       .... 1082
   RIJ-COSX (HFX calculated with COS-X)).... on


General Settings:
 Integral files         IntName         .... compound_medoid_8/compound_medoid_8
 Hartree-Fock type      HFTyp           .... RHF
 Total Charge           Charge          ....    0
 Multiplicity           Mult            ....    1
 Number of Electrons    NEL             ....  144
 Basis Dimension        Dim             ....  292
 Nuclear Repulsion      ENuc            ....   1520.1975644403 Eh

Convergence Acceleration:
 DIIS                   CNVDIIS         .... on
   Start iteration      DIISMaxIt       ....    12
   Startup error        DIISStart       ....  0.200000
   # of expansion vecs  DIISMaxEq       ....     5
   Bias factor          DIISBfac        ....   1.050
   Max. coefficient     DIISMaxC        ....  10.000
 Trust-Rad. Augm. Hess. CNVTRAH         .... auto
   Auto Start mean grad. ratio tolernc. ....  1.125000
   Auto Start start iteration           ....    20
   Auto Start num. interpolation iter.  ....    10
   Max. Number of Micro iterations      ....    16
   Max. Number of Macro iterations      .... Maxiter - #DIIS iter
   Number of Davidson start vectors     ....     2
   Converg. threshold I  (grad. norm)   ....   1.000e-05
   Converg. threshold II (energy diff.) ....   1.000e-08
   Grad. Scal. Fac. for Micro threshold ....   0.100
   Minimum threshold for Micro iter.    ....   0.010
   NR start threshold (gradient norm)   ....   0.001
   Initial trust radius                 ....   0.400
   Minimum AH scaling param. (alpha)    ....   1.000
   Maximum AH scaling param. (alpha)    .... 1000.000
   Orbital update algorithm             .... Taylor
   White noise on init. David. guess    .... on
   Maximum white noise                  ....   0.010
   Quad. conv. algorithm                .... NR
 SOSCF                  CNVSOSCF        .... on
   Start iteration      SOSCFMaxIt      ....   150
   Startup grad/error   SOSCFStart      ....  0.003300
 Level Shifting         CNVShift        .... on
   Level shift para.    LevelShift      ....    0.2500
   Turn off err/grad.   ShiftErr        ....    0.0010
 Zerner damping         CNVZerner       .... off
 Static damping         CNVDamp         .... on
   Fraction old density DampFac         ....    0.7000
   Max. Damping (<1)    DampMax         ....    0.9800
   Min. Damping (>=0)   DampMin         ....    0.0000
   Turn off err/grad.   DampErr         ....    0.1000
 Fernandez-Rico         CNVRico         .... off

SCF Procedure:
 Maximum # iterations   MaxIter         ....   125
 SCF integral mode      SCFMode         .... Direct
   Integral package                     .... SHARK and LIBINT hybrid scheme
 Reset frequency        DirectResetFreq ....    20
 Integral Threshold     Thresh          ....  2.500e-11 Eh
 Primitive CutOff       TCut            ....  2.500e-12 Eh

Convergence Tolerance:
 Convergence Check Mode ConvCheckMode   .... Total+1el-Energy
 Convergence forced     ConvForced      .... 0
 Energy Change          TolE            ....  1.000e-08 Eh
 1-El. energy change                    ....  1.000e-05 Eh
 Orbital Gradient       TolG            ....  1.000e-05
 Orbital Rotation angle TolX            ....  1.000e-05
 DIIS Error             TolErr          ....  5.000e-07


Diagonalization of the overlap matrix:
Smallest eigenvalue                        ... 4.150e-04
Time for diagonalization                   ...    0.009 sec
Threshold for overlap eigenvalues          ... 1.000e-08
Number of eigenvalues below threshold      ... 0
Time for construction of square roots      ...    0.020 sec
Total time needed                          ...    0.030 sec

Time for model grid setup =    0.175 sec

------------------------------
INITIAL GUESS: MODEL POTENTIAL
------------------------------
Loading Hartree-Fock densities                     ... done
Calculating cut-offs                               ... done
Initializing the effective Hamiltonian             ... done
Setting up the integral package (SHARK)            ... done
Starting the Coulomb interaction                   ... done (   0.1 sec)
Reading the grid                                   ... done
Mapping shells                                     ... done
Starting the XC term evaluation                    ... done (   0.0 sec)
  promolecular density results
     # of electrons  =    143.987762565
     EX              =   -129.849548960
     EC              =     -5.022413433
     EX+EC           =   -134.871962394
Transforming the Hamiltonian                       ... done (   0.0 sec)
Diagonalizing the Hamiltonian                      ... done (   0.0 sec)
Back transforming the eigenvectors                 ... done (   0.0 sec)
Now organizing SCF variables                       ... done
                      ------------------
                      INITIAL GUESS DONE (   0.3 sec)
                      ------------------
-------------------
DFT GRID GENERATION
-------------------

General Integration Accuracy     IntAcc      ... 4.388
Radial Grid Type                 RadialGrid  ... OptM3 with GC (2021)
Angular Grid (max. ang.)         AngularGrid ... 4 (Lebedev-302)
Angular grid pruning method      GridPruning ... 4 (adaptive)
Weight generation scheme         WeightScheme... Becke
Basis function cutoff            BFCut       ... 1.0000e-11
Integration weight cutoff        WCut        ... 1.0000e-14
Angular grids for H and He will be reduced by one unit
Partially contracted basis set               ... off
Rotationally invariant grid construction     ... off

Total number of grid points                  ...   166118
Total number of batches                      ...     2613
Average number of points per batch           ...       63
Average number of grid points per atom       ...     4614
Time for grid setup =    0.843 sec

--------------------
COSX GRID GENERATION
--------------------

GRIDX 1
-------
General Integration Accuracy     IntAcc      ... 3.816
Radial Grid Type                 RadialGrid  ... OptM3 with GC (2021)
Angular Grid (max. ang.)         AngularGrid ... 1 (Lebedev-50)
Angular grid pruning method      GridPruning ... 4 (adaptive)
Weight generation scheme         WeightScheme... Becke
Basis function cutoff            BFCut       ... 1.0000e-11
Integration weight cutoff        WCut        ... 1.0000e-14
Angular grids for H and He will be reduced by one unit
Partially contracted basis set               ... on
Rotationally invariant grid construction     ... off

Total number of grid points                  ...    21039
Total number of batches                      ...      348
Average number of points per batch           ...       60
Average number of grid points per atom       ...      584
UseSFitting                                  ... on

GRIDX 2
-------
General Integration Accuracy     IntAcc      ... 4.020
Radial Grid Type                 RadialGrid  ... OptM3 with GC (2021)
Angular Grid (max. ang.)         AngularGrid ... 2 (Lebedev-110)
Angular grid pruning method      GridPruning ... 4 (adaptive)
Weight generation scheme         WeightScheme... Becke
Basis function cutoff            BFCut       ... 1.0000e-11
Integration weight cutoff        WCut        ... 1.0000e-14
Angular grids for H and He will be reduced by one unit
Partially contracted basis set               ... on
Rotationally invariant grid construction     ... off

Total number of grid points                  ...    45151
Total number of batches                      ...      722
Average number of points per batch           ...       62
Average number of grid points per atom       ...     1254
UseSFitting                                  ... on

GRIDX 3
-------
General Integration Accuracy     IntAcc      ... 4.338
Radial Grid Type                 RadialGrid  ... OptM3 with GC (2021)
Angular Grid (max. ang.)         AngularGrid ... 3 (Lebedev-194)
Angular grid pruning method      GridPruning ... 4 (adaptive)
Weight generation scheme         WeightScheme... Becke
Basis function cutoff            BFCut       ... 1.0000e-11
Integration weight cutoff        WCut        ... 1.0000e-14
Angular grids for H and He will be reduced by one unit
Partially contracted basis set               ... on
Rotationally invariant grid construction     ... off

Total number of grid points                  ...    99152
Total number of batches                      ...     1567
Average number of points per batch           ...       63
Average number of grid points per atom       ...     2754
UseSFitting                                  ... on

Time for X-Grid setup             =    0.798 sec

--------------
SCF ITERATIONS
--------------
ITER       Energy         Delta-E        Max-DP      RMS-DP      [F,P]     Damp
               ***  Starting incremental Fock matrix formation  ***
  0  -1200.1624172082   0.000000000000 0.19744236  0.00247033  0.2931903 0.7000
  1  -1200.4789467146  -0.316529506384 0.08605442  0.00149224  0.1065712 0.7000
                               ***Turning on DIIS***
  2  -1200.5879647581  -0.109018043505 0.06297244  0.00210654  0.0381074 0.0000
  3  -1200.7810822177  -0.193117459638 0.07044315  0.00105717  0.0531001 0.0000
  4  -1200.8152220563  -0.034139838577 0.02279669  0.00035854  0.0220843 0.0000
  5  -1200.8186589389  -0.003436882587 0.00426413  0.00010457  0.0052132 0.0000
                      *** Initiating the SOSCF procedure ***
                           *** Shutting down DIIS ***
                      *** Re-Reading the Fockian *** 
                      *** Removing any level shift *** 
ITER      Energy       Delta-E        Grad      Rot      Max-DP    RMS-DP
  6  -1200.81879059  -0.0001316511  0.000315  0.000315  0.001455  0.000034
               *** Restarting incremental Fock matrix formation ***
  7  -1200.81891834  -0.0001277531  0.000146  0.000577  0.001477  0.000021
  8  -1200.81891800   0.0000003427  0.000226  0.000399  0.000755  0.000011
  9  -1200.81892091  -0.0000029097  0.000045  0.000117  0.000245  0.000005
 10  -1200.81892076   0.0000001522  0.000061  0.000059  0.000176  0.000003
 11  -1200.81892104  -0.0000002801  0.000008  0.000026  0.000034  0.000001
 12  -1200.81892104  -0.0000000039  0.000013  0.000022  0.000017  0.000001
 13  -1200.81892104  -0.0000000008  0.000003  0.000010  0.000008  0.000000
 14  -1200.81892104   0.0000000035  0.000004  0.000007  0.000006  0.000000
                  ***Gradient check signals convergence***
              ***Rediagonalizing the Fockian in SOSCF/NRSCF***

               *****************************************************
               *                     SUCCESS                       *
               *           SCF CONVERGED AFTER  15 CYCLES          *
               *****************************************************

Old exchange energy                            =    -26.306880708 Eh
New exchange energy                            =    -26.306922202 Eh
Exchange energy change after final integration =     -0.000041494 Eh
Total energy after final integration           =  -1200.818962538 Eh
Final COS-X integration done in                =     3.605 sec

----------------
TOTAL SCF ENERGY
----------------

Total Energy       :        -1200.81896254 Eh          -32675.94518 eV

Components:
Nuclear Repulsion  :         1520.19756444 Eh           41366.67877 eV
Electronic Energy  :        -2721.01652698 Eh          -74042.62395 eV
One Electron Energy:        -4662.79535642 Eh         -126881.11216 eV
Two Electron Energy:         1941.77882944 Eh           52838.48821 eV
Max COSX asymmetry :            0.00000340 Eh               0.00009 eV

Virial components:
Potential Energy   :        -2395.26896778 Eh          -65178.58223 eV
Kinetic Energy     :         1194.45000525 Eh           32502.63704 eV
Virial Ratio       :            2.00533213


DFT components:
N(Alpha)           :       72.000101795759 electrons
N(Beta)            :       72.000101795759 electrons
N(Total)           :      144.000203591518 electrons
E(X)               :     -104.504707685209 Eh       
E(C)               :       -5.902297541973 Eh       
E(XC)              :     -110.407005227183 Eh       
DFET-embed. en.    :        0.000000000000 Eh       

---------------
SCF CONVERGENCE
---------------

  Last Energy change         ...   -5.3531e-09  Tolerance :   1.0000e-08
  Last MAX-Density change    ...    5.7732e-15  Tolerance :   1.0000e-07
  Last RMS-Density change    ...    5.4298e-17  Tolerance :   5.0000e-09
  Last Orbital Gradient      ...    3.8107e-07  Tolerance :   1.0000e-05
  Last Orbital Rotation      ...    1.2493e-06  Tolerance :   1.0000e-05

             **** THE GBW FILE WAS UPDATED (compound_medoid_8/compound_medoid_8.gbw) ****
             **** DENSITY compound_medoid_8/compound_medoid_8.scfp WAS UPDATED ****
             **** ENERGY FILE WAS UPDATED (compound_medoid_8/compound_medoid_8.en.tmp) ****
             **** THE GBW FILE WAS UPDATED (compound_medoid_8/compound_medoid_8.gbw) ****
             **** DENSITY compound_medoid_8/compound_medoid_8.scfp WAS UPDATED ****
----------------
ORBITAL ENERGIES
----------------

  NO   OCC          E(Eh)            E(eV) 
   0   2.0000     -89.102493     -2424.6021 
   1   2.0000     -19.164374      -521.4891 
   2   2.0000     -19.129313      -520.5351 
   3   2.0000     -19.125652      -520.4355 
   4   2.0000     -14.376274      -391.1983 
   5   2.0000     -14.376004      -391.1910 
   6   2.0000     -10.245305      -278.7889 
   7   2.0000     -10.232899      -278.4513 
   8   2.0000     -10.222043      -278.1559 
   9   2.0000     -10.218835      -278.0686 
  10   2.0000     -10.193202      -277.3711 
  11   2.0000     -10.189219      -277.2627 
  12   2.0000     -10.188863      -277.2531 
  13   2.0000     -10.188414      -277.2408 
  14   2.0000     -10.183662      -277.1115 
  15   2.0000     -10.182182      -277.0713 
  16   2.0000     -10.178290      -276.9654 
  17   2.0000     -10.177370      -276.9403 
  18   2.0000      -8.137542      -221.4338 
  19   2.0000      -6.101945      -166.0424 
  20   2.0000      -6.101265      -166.0239 
  21   2.0000      -6.100188      -165.9945 
  22   2.0000      -1.088087       -29.6083 
  23   2.0000      -1.029305       -28.0088 
  24   2.0000      -0.963193       -26.2098 
  25   2.0000      -0.938204       -25.5298 
  26   2.0000      -0.929941       -25.3050 
  27   2.0000      -0.858623       -23.3643 
  28   2.0000      -0.804677       -21.8964 
  29   2.0000      -0.771320       -20.9887 
  30   2.0000      -0.734550       -19.9881 
  31   2.0000      -0.721113       -19.6225 
  32   2.0000      -0.717915       -19.5354 
  33   2.0000      -0.691426       -18.8147 
  34   2.0000      -0.639726       -17.4078 
  35   2.0000      -0.617790       -16.8109 
  36   2.0000      -0.606446       -16.5022 
  37   2.0000      -0.600181       -16.3318 
  38   2.0000      -0.565287       -15.3822 
  39   2.0000      -0.538790       -14.6612 
  40   2.0000      -0.528614       -14.3843 
  41   2.0000      -0.505403       -13.7527 
  42   2.0000      -0.493880       -13.4392 
  43   2.0000      -0.479240       -13.0408 
  44   2.0000      -0.472569       -12.8593 
  45   2.0000      -0.464037       -12.6271 
  46   2.0000      -0.455981       -12.4079 
  47   2.0000      -0.442689       -12.0462 
  48   2.0000      -0.440829       -11.9956 
  49   2.0000      -0.425888       -11.5890 
  50   2.0000      -0.419433       -11.4133 
  51   2.0000      -0.415756       -11.3133 
  52   2.0000      -0.409055       -11.1309 
  53   2.0000      -0.406164       -11.0523 
  54   2.0000      -0.400110       -10.8876 
  55   2.0000      -0.392020       -10.6674 
  56   2.0000      -0.383442       -10.4340 
  57   2.0000      -0.380252       -10.3472 
  58   2.0000      -0.377717       -10.2782 
  59   2.0000      -0.354560        -9.6481 
  60   2.0000      -0.353153        -9.6098 
  61   2.0000      -0.333762        -9.0821 
  62   2.0000      -0.328702        -8.9444 
  63   2.0000      -0.327230        -8.9044 
  64   2.0000      -0.312048        -8.4913 
  65   2.0000      -0.308563        -8.3964 
  66   2.0000      -0.289078        -7.8662 
  67   2.0000      -0.283617        -7.7176 
  68   2.0000      -0.269375        -7.3301 
  69   2.0000      -0.257136        -6.9970 
  70   2.0000      -0.242443        -6.5972 
  71   2.0000      -0.213045        -5.7972 
  72   0.0000      -0.004769        -0.1298 
  73   0.0000       0.001726         0.0470 
  74   0.0000       0.012851         0.3497 
  75   0.0000       0.050742         1.3807 
  76   0.0000       0.054211         1.4752 
  77   0.0000       0.066501         1.8096 
  78   0.0000       0.071506         1.9458 
  79   0.0000       0.088437         2.4065 
  80   0.0000       0.096510         2.6262 
  81   0.0000       0.108833         2.9615 
  82   0.0000       0.117135         3.1874 
  83   0.0000       0.120765         3.2862 
  84   0.0000       0.125820         3.4237 
  85   0.0000       0.133828         3.6416 
  86   0.0000       0.141344         3.8462 
  87   0.0000       0.150710         4.1010 
  88   0.0000       0.155160         4.2221 
  89   0.0000       0.160991         4.3808 
  90   0.0000       0.167525         4.5586 
  91   0.0000       0.170526         4.6403 
  92   0.0000       0.175464         4.7746 
  93   0.0000       0.181618         4.9421 
  94   0.0000       0.184142         5.0108 
  95   0.0000       0.192146         5.2285 
  96   0.0000       0.200936         5.4677 
  97   0.0000       0.211563         5.7569 
  98   0.0000       0.217335         5.9140 
  99   0.0000       0.228133         6.2078 
 100   0.0000       0.236920         6.4469 
 101   0.0000       0.239464         6.5161 
 102   0.0000       0.246361         6.7038 
 103   0.0000       0.263953         7.1825 
 104   0.0000       0.277880         7.5615 
 105   0.0000       0.290587         7.9073 
 106   0.0000       0.319103         8.6832 
 107   0.0000       0.340259         9.2589 
 108   0.0000       0.368184        10.0188 
 109   0.0000       0.368907        10.0385 
 110   0.0000       0.399477        10.8703 
 111   0.0000       0.419685        11.4202 
 112   0.0000       0.434249        11.8165 
 113   0.0000       0.462451        12.5839 
 114   0.0000       0.486046        13.2260 
 115   0.0000       0.491251        13.3676 
 116   0.0000       0.497740        13.5442 
 117   0.0000       0.511024        13.9057 
 118   0.0000       0.523046        14.2328 
 119   0.0000       0.528318        14.3763 
 120   0.0000       0.536265        14.5925 
 121   0.0000       0.544775        14.8241 
 122   0.0000       0.548726        14.9316 
 123   0.0000       0.558669        15.2021 
 124   0.0000       0.567123        15.4322 
 125   0.0000       0.572734        15.5849 
 126   0.0000       0.588228        16.0065 
 127   0.0000       0.593028        16.1371 
 128   0.0000       0.611093        16.6287 
 129   0.0000       0.613291        16.6885 
 130   0.0000       0.618390        16.8272 
 131   0.0000       0.626448        17.0465 
 132   0.0000       0.635238        17.2857 
 133   0.0000       0.650977        17.7140 
 134   0.0000       0.659893        17.9566 
 135   0.0000       0.671412        18.2700 
 136   0.0000       0.694142        18.8886 
 137   0.0000       0.700713        19.0674 
 138   0.0000       0.713371        19.4118 
 139   0.0000       0.719807        19.5870 
 140   0.0000       0.725745        19.7485 
 141   0.0000       0.734401        19.9841 
 142   0.0000       0.755032        20.5455 
 143   0.0000       0.764433        20.8013 
 144   0.0000       0.771778        21.0011 
 145   0.0000       0.777231        21.1495 
 146   0.0000       0.783615        21.3232 
 147   0.0000       0.810155        22.0454 
 148   0.0000       0.821741        22.3607 
 149   0.0000       0.826023        22.4772 
 150   0.0000       0.829642        22.5757 
 151   0.0000       0.832855        22.6631 
 152   0.0000       0.837758        22.7965 
 153   0.0000       0.846484        23.0340 
 154   0.0000       0.850015        23.1301 
 155   0.0000       0.855292        23.2737 
 156   0.0000       0.861732        23.4489 
 157   0.0000       0.864560        23.5259 
 158   0.0000       0.877155        23.8686 
 159   0.0000       0.881957        23.9993 
 160   0.0000       0.892047        24.2738 
 161   0.0000       0.901009        24.5177 
 162   0.0000       0.902205        24.5502 
 163   0.0000       0.916397        24.9364 
 164   0.0000       0.927314        25.2335 
 165   0.0000       0.933181        25.3932 
 166   0.0000       0.938017        25.5248 
 167   0.0000       0.939626        25.5685 
 168   0.0000       0.954365        25.9696 
 169   0.0000       0.969710        26.3871 
 170   0.0000       0.973979        26.5033 
 171   0.0000       0.979835        26.6627 
 172   0.0000       1.005275        27.3549 
 173   0.0000       1.008268        27.4364 
 174   0.0000       1.019702        27.7475 
 175   0.0000       1.030784        28.0491 
 176   0.0000       1.049251        28.5516 
 177   0.0000       1.058615        28.8064 
 178   0.0000       1.073571        29.2134 
 179   0.0000       1.081309        29.4239 
 180   0.0000       1.093577        29.7577 
 181   0.0000       1.101258        29.9668 
 182   0.0000       1.103954        30.0401 
 183   0.0000       1.125285        30.6205 
 184   0.0000       1.151316        31.3289 
 185   0.0000       1.164552        31.6891 
 186   0.0000       1.181909        32.1614 
 187   0.0000       1.188700        32.3462 
 188   0.0000       1.195335        32.5267 
 189   0.0000       1.201116        32.6840 
 190   0.0000       1.222061        33.2540 
 191   0.0000       1.238719        33.7073 
 192   0.0000       1.246408        33.9165 
 193   0.0000       1.264594        34.4113 
 194   0.0000       1.284562        34.9547 
 195   0.0000       1.358915        36.9779 
 196   0.0000       1.368627        37.2422 
 197   0.0000       1.376458        37.4553 
 198   0.0000       1.392652        37.8960 
 199   0.0000       1.408299        38.3218 
 200   0.0000       1.442735        39.2588 
 201   0.0000       1.446549        39.3626 
 202   0.0000       1.461964        39.7821 
 203   0.0000       1.478024        40.2191 
 204   0.0000       1.486588        40.4521 
 205   0.0000       1.494556        40.6689 
 206   0.0000       1.512839        41.1664 
 207   0.0000       1.580236        43.0004 
 208   0.0000       1.635506        44.5044 
 209   0.0000       1.652017        44.9537 
 210   0.0000       1.667037        45.3624 
 211   0.0000       1.679744        45.7081 
 212   0.0000       1.715102        46.6703 
 213   0.0000       1.719383        46.7868 
 214   0.0000       1.744713        47.4761 
 215   0.0000       1.753994        47.7286 
 216   0.0000       1.766367        48.0653 
 217   0.0000       1.775466        48.3129 
 218   0.0000       1.782965        48.5169 
 219   0.0000       1.796643        48.8891 
 220   0.0000       1.816892        49.4402 
 221   0.0000       1.831699        49.8431 
 222   0.0000       1.842428        50.1350 
 223   0.0000       1.857227        50.5377 
 224   0.0000       1.864503        50.7357 
 225   0.0000       1.866223        50.7825 
 226   0.0000       1.872274        50.9472 
 227   0.0000       1.878414        51.1142 
 228   0.0000       1.886966        51.3470 
 229   0.0000       1.897151        51.6241 
 230   0.0000       1.910802        51.9956 
 231   0.0000       1.919450        52.2309 
 232   0.0000       1.932450        52.5846 
 233   0.0000       1.947880        53.0045 
 234   0.0000       1.958878        53.3038 
 235   0.0000       1.968544        53.5668 
 236   0.0000       1.978323        53.8329 
 237   0.0000       1.985975        54.0411 
 238   0.0000       2.001181        54.4549 
 239   0.0000       2.012219        54.7553 
 240   0.0000       2.014496        54.8172 
 241   0.0000       2.021051        54.9956 
 242   0.0000       2.047280        55.7093 
 243   0.0000       2.057943        55.9995 
 244   0.0000       2.065424        56.2030 
 245   0.0000       2.091704        56.9182 
 246   0.0000       2.102799        57.2201 
 247   0.0000       2.119209        57.6666 
 248   0.0000       2.144627        58.3583 
 249   0.0000       2.165168        58.9172 
 250   0.0000       2.169158        59.0258 
 251   0.0000       2.180870        59.3445 
 252   0.0000       2.189695        59.5846 
 253   0.0000       2.211438        60.1763 
 254   0.0000       2.222418        60.4751 
 255   0.0000       2.224743        60.5383 
 256   0.0000       2.240670        60.9717 
 257   0.0000       2.247045        61.1452 
 258   0.0000       2.266718        61.6805 
 259   0.0000       2.269483        61.7558 
 260   0.0000       2.290773        62.3351 
 261   0.0000       2.304516        62.7091 
 262   0.0000       2.324236        63.2457 
 263   0.0000       2.345196        63.8160 
 264   0.0000       2.359306        64.2000 
 265   0.0000       2.397155        65.2299 
 266   0.0000       2.406262        65.4777 
 267   0.0000       2.414146        65.6923 
 268   0.0000       2.437955        66.3401 
 269   0.0000       2.459255        66.9197 
 270   0.0000       2.483414        67.5771 
 271   0.0000       2.498575        67.9897 
 272   0.0000       2.538784        69.0838 
 273   0.0000       2.552369        69.4535 
 274   0.0000       2.560557        69.6763 
 275   0.0000       2.602085        70.8063 
 276   0.0000       2.635544        71.7168 
 277   0.0000       2.665887        72.5425 
 278   0.0000       2.685556        73.0777 
 279   0.0000       2.698958        73.4424 
 280   0.0000       2.712283        73.8050 
 281   0.0000       2.740666        74.5773 
 282   0.0000       2.778313        75.6017 
 283   0.0000       2.790524        75.9340 
 284   0.0000       2.813972        76.5721 
 285   0.0000       2.838972        77.2524 
 286   0.0000       2.902267        78.9747 
 287   0.0000       2.911678        79.2308 
 288   0.0000       2.956726        80.4566 
 289   0.0000       3.002687        81.7073 
 290   0.0000       3.163894        86.0939 
 291   0.0000       3.415943        92.9525 

                    ********************************
                    * MULLIKEN POPULATION ANALYSIS *
                    ********************************

-----------------------
MULLIKEN ATOMIC CHARGES
-----------------------
   0 C :   -0.320748
   1 N :   -0.510889
   2 C :   -0.310541
   3 S :    1.272755
   4 O :   -0.538334
   5 O :   -0.542026
   6 N :   -0.625793
   7 C :   -0.026046
   8 C :   -0.298102
   9 C :   -0.344186
  10 C :    0.104721
  11 C :   -0.177664
  12 C :   -0.167004
  13 C :    0.393720
  14 O :   -0.676218
  15 C :   -0.263724
  16 C :    0.118062
  17 C :   -0.330067
  18 H :    0.170822
  19 H :    0.176536
  20 H :    0.162004
  21 H :    0.183437
  22 H :    0.170702
  23 H :    0.159594
  24 H :    0.343625
  25 H :    0.180015
  26 H :    0.162885
  27 H :    0.133205
  28 H :    0.148190
  29 H :    0.145368
  30 H :    0.125462
  31 H :    0.136001
  32 H :    0.413600
  33 H :    0.113544
  34 H :    0.166763
  35 H :    0.150329
Sum of atomic charges:    0.0000000

--------------------------------
MULLIKEN REDUCED ORBITAL CHARGES
--------------------------------
  0 C s       :     3.278118  s :     3.278118
      pz      :     0.943478  p :     2.994575
      px      :     1.111822
      py      :     0.939275
      dz2     :     0.009104  d :     0.048056
      dxz     :     0.010145
      dyz     :     0.012645
      dx2y2   :     0.010901
      dxy     :     0.005260
  1 N s       :     3.657299  s :     3.657299
      pz      :     1.435507  p :     3.815692
      px      :     1.270023
      py      :     1.110162
      dz2     :     0.007564  d :     0.037898
      dxz     :     0.004748
      dyz     :     0.008981
      dx2y2   :     0.008622
      dxy     :     0.007983
  2 C s       :     3.274689  s :     3.274689
      pz      :     1.085363  p :     2.987973
      px      :     0.809981
      py      :     1.092629
      dz2     :     0.006387  d :     0.047879
      dxz     :     0.012854
      dyz     :     0.009522
      dx2y2   :     0.011219
      dxy     :     0.007897
  3 S s       :     5.236009  s :     5.236009
      pz      :     2.984915  p :     8.956439
      px      :     2.989053
      py      :     2.982471
      dz2     :     0.118005  d :     0.534797
      dxz     :     0.113725
      dyz     :     0.107747
      dx2y2   :     0.103589
      dxy     :     0.091731
  4 O s       :     3.921510  s :     3.921510
      pz      :     1.694840  p :     4.590012
      px      :     1.534117
      py      :     1.361056
      dz2     :     0.003041  d :     0.026812
      dxz     :     0.002940
      dyz     :     0.005365
      dx2y2   :     0.007665
      dxy     :     0.007800
  5 O s       :     3.930299  s :     3.930299
      pz      :     1.191115  p :     4.584855
      px      :     1.688964
      py      :     1.704777
      dz2     :     0.010615  d :     0.026872
      dxz     :     0.007810
      dyz     :     0.007854
      dx2y2   :     0.000305
      dxy     :     0.000288
  6 N s       :     3.710493  s :     3.710493
      pz      :     1.233824  p :     3.880657
      px      :     1.093559
      py      :     1.553274
      dz2     :     0.012204  d :     0.034644
      dxz     :     0.004720
      dyz     :     0.002819
      dx2y2   :     0.007521
      dxy     :     0.007379
  7 C s       :     3.195635  s :     3.195635
      pz      :     1.005222  p :     2.772828
      px      :     0.896957
      py      :     0.870649
      dz2     :     0.011467  d :     0.057582
      dxz     :     0.007214
      dyz     :     0.011589
      dx2y2   :     0.011946
      dxy     :     0.015366
  8 C s       :     3.260852  s :     3.260852
      pz      :     0.983046  p :     2.997884
      px      :     1.051277
      py      :     0.963561
      dz2     :     0.008792  d :     0.039365
      dxz     :     0.004718
      dyz     :     0.009880
      dx2y2   :     0.007514
      dxy     :     0.008461
  9 C s       :     3.261374  s :     3.261374
      pz      :     1.041633  p :     3.041655
      px      :     0.993879
      py      :     1.006142
      dz2     :     0.005080  d :     0.041157
      dxz     :     0.008133
      dyz     :     0.012182
      dx2y2   :     0.007236
      dxy     :     0.008524
 10 C s       :     3.129159  s :     3.129159
      pz      :     0.998543  p :     2.726336
      px      :     0.850847
      py      :     0.876947
      dz2     :     0.003674  d :     0.039784
      dxz     :     0.005571
      dyz     :     0.006773
      dx2y2   :     0.011813
      dxy     :     0.011953
 11 C s       :     3.212065  s :     3.212065
      pz      :     0.994350  p :     2.928882
      px      :     0.958441
      py      :     0.976092
      dz2     :     0.003949  d :     0.036716
      dxz     :     0.006510
      dyz     :     0.003772
      dx2y2   :     0.013112
      dxy     :     0.009373
 12 C s       :     3.187522  s :     3.187522
      pz      :     1.034458  p :     2.945116
      px      :     0.969216
      py      :     0.941441
      dz2     :     0.004474  d :     0.034366
      dxz     :     0.003912
      dyz     :     0.004993
      dx2y2   :     0.009054
      dxy     :     0.011934
 13 C s       :     3.073491  s :     3.073491
      pz      :     0.913301  p :     2.464818
      px      :     0.697254
      py      :     0.854263
      dz2     :     0.007399  d :     0.067971
      dxz     :     0.013853
      dyz     :     0.008352
      dx2y2   :     0.019885
      dxy     :     0.018483
 14 O s       :     3.889510  s :     3.889510
      pz      :     1.790859  p :     4.763322
      px      :     1.530003
      py      :     1.442460
      dz2     :     0.003822  d :     0.023385
      dxz     :     0.004281
      dyz     :     0.002144
      dx2y2   :     0.011055
      dxy     :     0.002084
 15 C s       :     3.202956  s :     3.202956
      pz      :     1.079250  p :     3.026546
      px      :     1.009199
      py      :     0.938096
      dz2     :     0.003729  d :     0.034222
      dxz     :     0.005632
      dyz     :     0.003756
      dx2y2   :     0.011412
      dxy     :     0.009694
 16 C s       :     3.141999  s :     3.141999
      pz      :     0.956386  p :     2.699139
      px      :     0.872843
      py      :     0.869910
      dz2     :     0.004530  d :     0.040800
      dxz     :     0.005722
      dyz     :     0.007062
      dx2y2   :     0.011517
      dxy     :     0.011969
 17 C s       :     3.270496  s :     3.270496
      pz      :     1.074589  p :     3.019580
      px      :     0.929146
      py      :     1.015846
      dz2     :     0.006855  d :     0.039991
      dxz     :     0.004447
      dyz     :     0.012745
      dx2y2   :     0.006839
      dxy     :     0.009104
 18 H s       :     0.829178  s :     0.829178
 19 H s       :     0.823464  s :     0.823464
 20 H s       :     0.837996  s :     0.837996
 21 H s       :     0.816563  s :     0.816563
 22 H s       :     0.829298  s :     0.829298
[...]
      dx2y2   :     0.011806
      dxy     :     0.016403
  8 C s       :     3.252103  s :     3.252103
      pz      :     0.989882  p :     2.987650
      px      :     1.037424
      py      :     0.960344
      dz2     :     0.009747  d :     0.039494
      dxz     :     0.003457
      dyz     :     0.009954
      dx2y2   :     0.007373
      dxy     :     0.008962
  9 C s       :     3.255249  s :     3.255249
      pz      :     1.049600  p :     3.049098
      px      :     0.985203
      py      :     1.014294
      dz2     :     0.005160  d :     0.040899
      dxz     :     0.006972
      dyz     :     0.012747
      dx2y2   :     0.007359
      dxy     :     0.008662
 10 C s       :     3.123781  s :     3.123781
      pz      :     1.006180  p :     2.724029
      px      :     0.839731
      py      :     0.878117
      dz2     :     0.003434  d :     0.039906
      dxz     :     0.005588
      dyz     :     0.006405
      dx2y2   :     0.012289
      dxy     :     0.012191
 11 C s       :     3.216705  s :     3.216705
      pz      :     0.993121  p :     2.934287
      px      :     0.955769
      py      :     0.985397
      dz2     :     0.003591  d :     0.036997
      dxz     :     0.007002
      dyz     :     0.003282
      dx2y2   :     0.013509
      dxy     :     0.009613
 12 C s       :     3.185915  s :     3.185915
      pz      :     1.036402  p :     2.940431
      px      :     0.961486
      py      :     0.942542
      dz2     :     0.004168  d :     0.034349
      dxz     :     0.003789
      dyz     :     0.004691
      dx2y2   :     0.010049
      dxy     :     0.011651
 13 C s       :     3.061695  s :     3.061695
      pz      :     0.927370  p :     2.504638
      px      :     0.703437
      py      :     0.873830
      dz2     :     0.006740  d :     0.070556
      dxz     :     0.015016
      dyz     :     0.008045
      dx2y2   :     0.021601
      dxy     :     0.019153
 14 O s       :     3.888929  s :     3.888929
      pz      :     1.807358  p :     4.722949
      px      :     1.520369
      py      :     1.395222
      dz2     :     0.004422  d :     0.028797
      dxz     :     0.005127
      dyz     :     0.001902
      dx2y2   :     0.013567
      dxy     :     0.003778
 15 C s       :     3.188558  s :     3.188558
      pz      :     1.095449  p :     3.049172
      px      :     1.010627
      py      :     0.943096
      dz2     :     0.003518  d :     0.034296
      dxz     :     0.005920
      dyz     :     0.003308
      dx2y2   :     0.011910
      dxy     :     0.009639
 16 C s       :     3.141096  s :     3.141096
      pz      :     0.957943  p :     2.698230
      px      :     0.866146
      py      :     0.874141
      dz2     :     0.004126  d :     0.041115
      dxz     :     0.005857
      dyz     :     0.006867
      dx2y2   :     0.011762
      dxy     :     0.012502
 17 C s       :     3.262070  s :     3.262070
      pz      :     1.074877  p :     3.037108
      px      :     0.938330
      py      :     1.023901
      dz2     :     0.006706  d :     0.039946
      dxz     :     0.003849
      dyz     :     0.013443
      dx2y2   :     0.006914
      dxy     :     0.009034
 18 H s       :     0.816155  s :     0.816155
 19 H s       :     0.840138  s :     0.840138
 20 H s       :     0.845622  s :     0.845622
 21 H s       :     0.822644  s :     0.822644
 22 H s       :     0.838018  s :     0.838018
 23 H s       :     0.844630  s :     0.844630
 24 H s       :     0.659832  s :     0.659832
 25 H s       :     0.827178  s :     0.827178
 26 H s       :     0.842800  s :     0.842800
 27 H s       :     0.871581  s :     0.871581
 28 H s       :     0.849472  s :     0.849472
 29 H s       :     0.853446  s :     0.853446
 30 H s       :     0.878710  s :     0.878710
 31 H s       :     0.863627  s :     0.863627
 32 H s       :     0.589206  s :     0.589206
 33 H s       :     0.888598  s :     0.888598
 34 H s       :     0.832427  s :     0.832427
 35 H s       :     0.855330  s :     0.855330


                     *******************************
                     * LOEWDIN POPULATION ANALYSIS *
                     *******************************

----------------------
LOEWDIN ATOMIC CHARGES
----------------------
   0 C :   -0.278093
   1 N :   -0.338912
   2 C :   -0.277591
   3 S :    1.287133
   4 O :   -0.557956
   5 O :   -0.556263
   6 N :   -0.428073
   7 C :   -0.072433
   8 C :   -0.241383
   9 C :   -0.225583
  10 C :   -0.049065
  11 C :   -0.118837
  12 C :   -0.155595
  13 C :    0.069647
  14 O :   -0.319639
  15 C :   -0.186222
  16 C :   -0.016068
  17 C :   -0.221808
  18 H :    0.144179
  19 H :    0.122098
  20 H :    0.128663
  21 H :    0.141454
  22 H :    0.123317
  23 H :    0.128848
  24 H :    0.259371
  25 H :    0.142173
  26 H :    0.131935
  27 H :    0.117300
  28 H :    0.128610
  29 H :    0.130148
  30 H :    0.129291
  31 H :    0.139935
  32 H :    0.325138
  33 H :    0.124801
  34 H :    0.140573
  35 H :    0.128907

-------------------------------
LOEWDIN REDUCED ORBITAL CHARGES
-------------------------------
  0 C s       :     2.969600  s :     2.969600
      pz      :     1.052321  p :     3.211398
      px      :     1.142820
      py      :     1.016257
      dz2     :     0.007396  d :     0.097095
      dxz     :     0.029820
      dyz     :     0.027833
      dx2y2   :     0.022267
      dxy     :     0.009779
  1 N s       :     3.222377  s :     3.222377
      pz      :     1.328766  p :     4.029984
      px      :     1.452624
      py      :     1.248595
      dz2     :     0.014024  d :     0.086550
      dxz     :     0.016146
      dyz     :     0.022939
      dx2y2   :     0.015903
      dxy     :     0.017538
  2 C s       :     2.969103  s :     2.969103
      pz      :     1.041643  p :     3.211252
      px      :     1.031033
      py      :     1.138575
      dz2     :     0.013339  d :     0.097236
      dxz     :     0.027383
      dyz     :     0.021565
      dx2y2   :     0.022085
      dxy     :     0.012863
  3 S s       :     5.040803  s :     5.040803
      pz      :     2.955667  p :     8.879282
      px      :     2.960671
      py      :     2.962943
      dz2     :     0.171520  d :     0.792783
      dxz     :     0.162673
      dyz     :     0.165934
      dx2y2   :     0.148224
      dxy     :     0.144432
  4 O s       :     3.682864  s :     3.682864
      pz      :     1.658146  p :     4.813997
      px      :     1.646239
      py      :     1.509612
      dz2     :     0.007451  d :     0.061095
      dxz     :     0.006353
      dyz     :     0.014306
      dx2y2   :     0.013668
      dxy     :     0.019318
  5 O s       :     3.682780  s :     3.682780
      pz      :     1.412166  p :     4.812430
      px      :     1.705806
      py      :     1.694458
      dz2     :     0.031374  d :     0.061053
      dxz     :     0.013631
      dyz     :     0.014093
      dx2y2   :     0.001059
      dxy     :     0.000896
  6 N s       :     3.257053  s :     3.257053
      pz      :     1.330554  p :     4.097686
      px      :     1.224695
      py      :     1.542437
      dz2     :     0.020130  d :     0.073334
      dxz     :     0.013973
      dyz     :     0.007307
      dx2y2   :     0.018847
      dxy     :     0.013078
  7 C s       :     2.890580  s :     2.890580
      pz      :     1.093846  p :     3.051733
      px      :     0.966891
      py      :     0.990996
      dz2     :     0.026385  d :     0.130121
      dxz     :     0.012665
      dyz     :     0.025786
      dx2y2   :     0.027200
      dxy     :     0.038085
  8 C s       :     2.940002  s :     2.940002
      pz      :     1.075337  p :     3.218131
      px      :     1.090801
      py      :     1.051992
      dz2     :     0.019458  d :     0.083250
      dxz     :     0.006804
      dyz     :     0.022517
      dx2y2   :     0.015231
      dxy     :     0.019240
  9 C s       :     2.926995  s :     2.926995
      pz      :     1.103442  p :     3.213330
      px      :     1.039792
      py      :     1.070096
      dz2     :     0.010285  d :     0.085258
      dxz     :     0.014214
      dyz     :     0.024706
      dx2y2   :     0.015878
      dxy     :     0.020175
 10 C s       :     2.870944  s :     2.870944
      pz      :     1.006101  p :     3.078763
      px      :     1.023449
      py      :     1.049212
      dz2     :     0.007060  d :     0.099358
      dxz     :     0.011546
      dyz     :     0.013864
      dx2y2   :     0.033089
      dxy     :     0.033800
 11 C s       :     2.914798  s :     2.914798
      pz      :     0.992122  p :     3.117344
      px      :     1.060982
      py      :     1.064239
      dz2     :     0.006713  d :     0.086695
      dxz     :     0.016040
      dyz     :     0.005903
      dx2y2   :     0.032843
      dxy     :     0.025196
 12 C s       :     2.914609  s :     2.914609
      pz      :     1.035487  p :     3.159214
      px      :     1.073663
      py      :     1.050064
      dz2     :     0.007872  d :     0.081772
      dxz     :     0.008206
      dyz     :     0.010377
      dx2y2   :     0.027019
      dxy     :     0.028298
 13 C s       :     2.851858  s :     2.851858
      pz      :     0.942765  p :     2.910073
      px      :     0.909232
      py      :     1.058076
      dz2     :     0.014765  d :     0.168423
      dxz     :     0.032943
      dyz     :     0.017844
      dx2y2   :     0.053736
      dxy     :     0.049135
 14 O s       :     3.527708  s :     3.527708
      pz      :     1.795650  p :     4.739064
      px      :     1.537938
      py      :     1.405476
      dz2     :     0.006872  d :     0.052868
      dxz     :     0.009137
      dyz     :     0.003633
      dx2y2   :     0.025018
      dxy     :     0.008208
 15 C s       :     2.914510  s :     2.914510
      pz      :     1.078270  p :     3.189641
      px      :     1.055746
      py      :     1.055625
      dz2     :     0.006851  d :     0.082071
      dxz     :     0.013386
      dyz     :     0.005815
      dx2y2   :     0.029932
      dxy     :     0.026087
 16 C s       :     2.873291  s :     2.873291
      pz      :     0.970178  p :     3.040959
      px      :     1.025628
      py      :     1.045153
      dz2     :     0.008568  d :     0.101819
      dxz     :     0.012818
      dyz     :     0.014724
      dx2y2   :     0.031347
      dxy     :     0.034361
 17 C s       :     2.933337  s :     2.933337
      pz      :     1.114366  p :     3.204932
      px      :     1.019143
      py      :     1.071423
      dz2     :     0.013704  d :     0.083539
      dxz     :     0.007381
      dyz     :     0.025732
      dx2y2   :     0.015448
      dxy     :     0.021274
 18 H s       :     0.855821  s :     0.855821
 19 H s       :     0.877902  s :     0.877902
 20 H s       :     0.871337  s :     0.871337
 21 H s       :     0.858546  s :     0.858546
 22 H s       :     0.876683  s :     0.876683
 23 H s       :     0.871152  s :     0.871152
 24 H s       :     0.740629  s :     0.740629
 25 H s       :     0.857827  s :     0.857827
 26 H s       :     0.868065  s :     0.868065
 27 H s       :     0.882700  s :     0.882700
 28 H s       :     0.871390  s :     0.871390
 29 H s       :     0.869852  s :     0.869852
 30 H s       :     0.870709  s :     0.870709
 31 H s       :     0.860065  s :     0.860065
 32 H s       :     0.674862  s :     0.674862
 33 H s       :     0.875199  s :     0.875199
 34 H s       :     0.859427  s :     0.859427
 35 H s       :     0.871093  s :     0.871093


                      *****************************
                      * MAYER POPULATION ANALYSIS *
                      *****************************

  NA   - Mulliken gross atomic population
  ZA   - Total nuclear charge
  QA   - Mulliken gross atomic charge
  VA   - Mayer's total valence
  BVA  - Mayer's bonded valence
  FA   - Mayer's free valence

  ATOM       NA         ZA         QA         VA         BVA        FA
  0 C      6.3019     6.0000    -0.3019     3.8097     3.8097     0.0000
  1 N      7.5322     7.0000    -0.5322     2.8733     2.8733    -0.0000
  2 C      6.3000     6.0000    -0.3000     3.8127     3.8127     0.0000
  3 S     14.6860    16.0000     1.3140     5.2266     5.2266    -0.0000
  4 O      8.5334     8.0000    -0.5334     1.9116     1.9116    -0.0000
  5 O      8.5425     8.0000    -0.5425     1.9054     1.9054    -0.0000
  6 N      7.6634     7.0000    -0.6634     2.7855     2.7855     0.0000
  7 C      5.9911     6.0000     0.0089     3.8496     3.8496     0.0000
  8 C      6.2792     6.0000    -0.2792     3.8438     3.8438     0.0000
  9 C      6.3452     6.0000    -0.3452     3.8638     3.8638    -0.0000
 10 C      5.8877     6.0000     0.1123     3.9454     3.9454    -0.0000
 11 C      6.1880     6.0000    -0.1880     3.9332     3.9332     0.0000
 12 C      6.1607     6.0000    -0.1607     3.9048     3.9048    -0.0000
 13 C      5.6369     6.0000     0.3631     3.8560     3.8560    -0.0000
 14 O      8.6407     8.0000    -0.6407     1.8682     1.8682    -0.0000
 15 C      6.2720     6.0000    -0.2720     3.8695     3.8695     0.0000
 16 C      5.8804     6.0000     0.1196     3.9751     3.9751     0.0000
 17 C      6.3391     6.0000    -0.3391     3.8328     3.8328    -0.0000
 18 H      0.8162     1.0000     0.1838     0.9369     0.9369     0.0000
 19 H      0.8401     1.0000     0.1599     0.9275     0.9275     0.0000
 20 H      0.8456     1.0000     0.1544     0.9302     0.9302     0.0000
 21 H      0.8226     1.0000     0.1774     0.9373     0.9373    -0.0000
 22 H      0.8380     1.0000     0.1620     0.9274     0.9274     0.0000
 23 H      0.8446     1.0000     0.1554     0.9294     0.9294     0.0000
 24 H      0.6598     1.0000     0.3402     0.8589     0.8589     0.0000
 25 H      0.8272     1.0000     0.1728     0.9388     0.9388    -0.0000
 26 H      0.8428     1.0000     0.1572     0.9394     0.9394    -0.0000
 27 H      0.8716     1.0000     0.1284     0.9372     0.9372     0.0000
 28 H      0.8495     1.0000     0.1505     0.9247     0.9247     0.0000
 29 H      0.8534     1.0000     0.1466     0.9306     0.9306    -0.0000
 30 H      0.8787     1.0000     0.1213     0.9403     0.9403    -0.0000
 31 H      0.8636     1.0000     0.1364     0.9396     0.9396    -0.0000
 32 H      0.5892     1.0000     0.4108     0.8015     0.8015     0.0000
 33 H      0.8886     1.0000     0.1114     0.9438     0.9438    -0.0000
 34 H      0.8324     1.0000     0.1676     0.9297     0.9297    -0.0000
 35 H      0.8553     1.0000     0.1447     0.9310     0.9310    -0.0000

  Mayer bond orders larger than 0.100000
B(  0-C ,  1-N ) :   0.9498 B(  0-C , 18-H ) :   0.9380 B(  0-C , 19-H ) :   0.9351 
B(  0-C , 20-H ) :   0.9367 B(  1-N ,  2-C ) :   0.9513 B(  1-N ,  3-S ) :   0.8435 
B(  2-C , 21-H ) :   0.9394 B(  2-C , 22-H ) :   0.9343 B(  2-C , 23-H ) :   0.9361 
B(  3-S ,  4-O ) :   1.6804 B(  3-S ,  5-O ) :   1.6635 B(  3-S ,  6-N ) :   0.9271 
B(  6-N ,  7-C ) :   0.9011 B(  6-N , 24-H ) :   0.8170 B(  7-C ,  8-C ) :   0.9925 
B(  7-C , 17-C ) :   0.9949 B(  7-C , 25-H ) :   0.9130 B(  8-C ,  9-C ) :   1.0013 
B(  8-C , 26-H ) :   0.9260 B(  8-C , 27-H ) :   0.9357 B(  9-C , 10-C ) :   0.9800 
B(  9-C , 28-H ) :   0.9259 B(  9-C , 29-H ) :   0.9331 B( 10-C , 11-C ) :   1.3839 
B( 10-C , 16-C ) :   1.4670 B( 11-C , 12-C ) :   1.4640 B( 11-C , 30-H ) :   0.9264 
B( 12-C , 13-C ) :   1.3832 B( 12-C , 31-H ) :   0.9206 B( 13-C , 14-O ) :   0.9513 
B( 13-C , 15-C ) :   1.3812 B( 14-O , 32-H ) :   0.7788 B( 15-C , 16-C ) :   1.3891 
B( 15-C , 33-H ) :   0.9167 B( 16-C , 17-C ) :   0.9627 B( 17-C , 34-H ) :   0.9266 
B( 17-C , 35-H ) :   0.9223 

-------
TIMINGS
-------

Total SCF time: 0 days 0 hours 0 min 15 sec 

Total time                  ....      15.189 sec
Sum of individual times     ....      14.474 sec  ( 95.3%)

Fock matrix formation       ....      12.214 sec  ( 80.4%)
  Split-RI-J                ....       1.460 sec  ( 12.0% of F)
  Chain of spheres X        ....       9.106 sec  ( 74.6% of F)
  XC integration            ....       1.459 sec  ( 11.9% of F)
    Basis function eval.    ....       0.188 sec  ( 12.9% of XC)
    Density eval.           ....       0.119 sec  (  8.1% of XC)
    XC-Functional eval.     ....       0.036 sec  (  2.4% of XC)
    XC-Potential eval.      ....       0.069 sec  (  4.7% of XC)
Diagonalization             ....       0.020 sec  (  0.1%)
Density matrix formation    ....       0.204 sec  (  1.3%)
Population analysis         ....       0.074 sec  (  0.5%)
Initial guess               ....       0.038 sec  (  0.3%)
Orbital Transformation      ....       0.000 sec  (  0.0%)
Orbital Orthonormalization  ....       0.014 sec  (  0.1%)
DIIS solution               ....       0.012 sec  (  0.1%)
SOSCF solution              ....       0.320 sec  (  2.1%)
Grid generation             ....       1.592 sec  ( 10.5%)

Maximum memory used throughout the entire SCF-calculation: 72.4 MB

-------------------------   --------------------
FINAL SINGLE POINT ENERGY     -1200.853062711611
-------------------------   --------------------

                                *** OPTIMIZATION RUN DONE ***

                            ***************************************
                            *     ORCA property calculations      *
                            ***************************************

                                    ---------------------
                                    Active property flags
                                    ---------------------
   (+) Dipole Moment


------------------------------------------------------------------------------
                       ORCA ELECTRIC PROPERTIES CALCULATION
------------------------------------------------------------------------------

Dipole Moment Calculation                       ... on
Quadrupole Moment Calculation                   ... off
Polarizability Calculation                      ... off
GBWName                                         ... compound_medoid_8/compound_medoid_8.gbw
Electron density                                ... compound_medoid_8/compound_medoid_8.scfp
The origin for moment calculation is the CENTER OF MASS  = (-0.073361, -0.639248  0.714300)

-------------
DIPOLE MOMENT
-------------
                                X             Y             Z
Electronic contribution:     -7.01142      -8.17708       4.83815
Nuclear contribution   :      6.92225       9.06733      -5.89484
                        -----------------------------------------
Total Dipole Moment    :     -0.08917       0.89025      -1.05669
                        -----------------------------------------
Magnitude (a.u.)       :      1.38459
Magnitude (Debye)      :      3.51934



--------------------
Rotational spectrum 
--------------------
 
Rotational constants in cm-1:     0.033828     0.005447     0.005033 
Rotational constants in MHz :  1014.152280   163.300193   150.882775 

 Dipole components along the rotational axes: 
x,y,z [a.u.] :    -0.222101     1.134076    -0.762645 
x,y,z [Debye]:    -0.564535     2.882592    -1.938490 

 

======================   ALLOCATED NODES   ======================
	gpua068: flags=0x11 slots=1 max_slots=0 slots_inuse=0 state=UP
=================================================================

Timings for individual modules:

Sum of individual times         ...      825.855 sec (=  13.764 min)
GTO integral calculation        ...       95.056 sec (=   1.584 min)  11.5 %
SCF iterations                  ...      539.991 sec (=   9.000 min)  65.4 %
SCF Gradient evaluation         ...      188.953 sec (=   3.149 min)  22.9 %
Geometry relaxation             ...        1.855 sec (=   0.031 min)   0.2 %
                             ****ORCA TERMINATED NORMALLY****
TOTAL RUN TIME: 0 days 0 hours 15 minutes 12 seconds 15 msec
